# LAMMPS config file [2020-05-23 15:22:58]
# Star Polyelectrolyte in Neutral system

62 atoms
20 bonds
22 angles

1 atom types
1 bond types
1 angle types

-25.0 25.0 xlo xhi
-25.0 25.0 ylo yhi
-25.0 25.0 zlo zhi

Masses

1 1.0

Atoms

1 1 1 1 5.0 0.0 0.0
2 1 1 1 4.0 0.0 0.0
3 1 1 1 3.0 0.0 0.0
4 1 1 1 2.0 0.0 0.0
5 1 1 1 1.0 0.0 0.0
6 1 1 1 0.0 5.0 0.0
7 1 1 1 0.0 4.0 0.0
8 1 1 1 0.0 3.0 0.0
9 1 1 1 0.0 2.0 0.0
10 1 1 1 0.0 1.0 0.0
11 1 1 1 0.0 0.0 5.0
12 1 1 1 0.0 0.0 4.0
13 1 1 1 0.0 0.0 3.0
14 1 1 1 0.0 0.0 2.0
15 1 1 1 0.0 0.0 1.0
16 1 1 1 -5.0 0.0 0.0
17 1 1 1 -4.0 0.0 0.0
18 1 1 1 -3.0 0.0 0.0
19 1 1 1 -2.0 0.0 0.0
20 1 1 1 -1.0 0.0 0.0
21 1 1 1 0.0 0.0 0.0
22 2 1 -1.0 26.3778738489 12.2630861122 3.67328288999
23 2 1 -1.0 18.9429750884 22.8412985825 37.0699457225
24 2 1 -1.0 19.7934375791 18.7839028086 25.3837317498
25 2 1 -1.0 10.5767000515 45.1712686635 30.9634950088
26 2 1 -1.0 42.6960089468 21.4823856734 49.8914748688
27 2 1 -1.0 0.348919445708 3.13702035752 6.35872709158
28 2 1 -1.0 26.8537922326 44.5595872192 0.211646895528
29 2 1 -1.0 1.86432528368 5.70160686807 2.17777533635
30 2 1 -1.0 2.02058621091 17.6631679228 48.3491596778
31 2 1 -1.0 21.8152209479 38.0644053441 8.7459222008
32 2 1 1.0 37.7672235247 23.7164051001 37.4102091189
33 2 1 1.0 41.742301844 0.419807632226 46.3940395966
34 2 1 1.0 42.1290044493 9.52000563888 43.2050299724
35 2 1 1.0 49.4816337646 13.8864800483 11.2481268696
36 2 1 1.0 32.4853865801 44.2050956034 7.19300740941
37 2 1 1.0 30.6871025606 24.9645810375 23.7577207579
38 2 1 1.0 33.8338356923 5.14520355362 46.211842083
39 2 1 1.0 42.0218123114 16.5679233972 49.4240293568
40 2 1 1.0 37.3045483931 28.2338949184 35.0860237639
41 2 1 1.0 2.82479099876 17.4595672012 38.144371819
42 1 1 -1.0 0.929508962189 0.178297496721 0.941020291427
43 1 1 -1.0 0.642559119732 0.629444536692 0.563552822182
44 1 1 -1.0 0.907192900243 0.992444194245 0.679124320326
45 1 1 -1.0 0.565218180074 0.63560991839 0.15812701338
46 1 1 -1.0 0.790702122787 0.652194535304 0.687381971368
47 1 1 -1.0 0.938251804198 0.485976849132 0.236892252046
48 1 1 -1.0 0.679390586297 0.321025164268 0.0384250669702
49 1 1 -1.0 0.212702470552 0.415399382058 0.658022940875
50 1 1 -1.0 0.256025678822 0.0486711132591 0.0109164729225
51 1 1 -1.0 0.469270108562 0.462310174228 0.14784348579
52 1 1 -1.0 0.403025792681 0.758484569494 0.883396799791
53 1 1 -1.0 0.906974602109 0.805454260366 0.626068634168
54 1 1 -1.0 0.532188252594 0.619149710142 0.917461565005
55 1 1 -1.0 0.868203145502 0.0530667864974 0.993318110148
56 1 1 -1.0 0.687594585715 0.286806031673 0.816428617014
57 1 1 -1.0 0.90107274054 0.437879787707 0.00911650755228
58 1 1 -1.0 0.860163245249 0.605938870948 0.64644325595
59 1 1 -1.0 0.0621228569079 0.390023587366 0.221299346581
60 1 1 -1.0 0.722811425756 0.666226796748 0.407355512749
61 1 1 -1.0 0.0876192926656 0.332110368372 0.58370948098
62 1 1 -1.0 0.0201459133495 0.559583012944 0.0993885550887

Bonds

1 1 1 2
2 1 2 3
3 1 3 4
4 1 4 5
5 1 5 21
6 1 6 7
7 1 7 8
8 1 8 9
9 1 9 10
10 1 10 21
11 1 11 12
12 1 12 13
13 1 13 14
14 1 14 15
15 1 15 21
16 1 16 17
17 1 17 18
18 1 18 19
19 1 19 20
20 1 20 21

Angles

1 1 1 2 3
2 1 2 3 4
3 1 3 4 5
4 1 6 7 8
5 1 7 8 9
6 1 8 9 10
7 1 11 12 13
8 1 12 13 14
9 1 13 14 15
10 1 16 17 18
11 1 17 18 19
12 1 18 19 20
13 1 4 5 21
14 1 9 10 21
15 1 14 15 21
16 1 19 20 21
17 1 5 21 10
18 1 5 21 15
19 1 5 21 20
20 1 10 21 15
21 1 10 21 20
22 1 15 21 20
