# LAMMPS config file [2020-05-22 18:31:45]
# Neutral Linear Polyelectrolyte

42 atoms
40 bonds
38 angles

3 atom types
1 bond types
1 angle types

-15.0 15.0 xlo xhi
-15.0 15.0 ylo yhi
-15.0 15.0 zlo zhi

Masses

1 1.0
2 1.0
3 1.0

Atoms

1 1 1 1.0 1.0 1.0
2 1 1 2.0 1.0 1.0
3 1 1 3.0 1.0 1.0
4 1 1 4.0 1.0 1.0
5 1 1 5.0 1.0 1.0
6 1 1 6.0 1.0 1.0
7 1 1 7.0 1.0 1.0
8 1 1 8.0 1.0 1.0
9 1 1 9.0 1.0 1.0
10 1 1 10.0 1.0 1.0
11 1 2 11.0 1.0 1.0
12 1 2 12.0 1.0 1.0
13 1 2 13.0 1.0 1.0
14 1 2 14.0 1.0 1.0
15 1 2 15.0 1.0 1.0
16 1 2 16.0 1.0 1.0
17 1 2 17.0 1.0 1.0
18 1 3 18.0 1.0 1.0
19 1 3 19.0 1.0 1.0
20 1 3 20.0 1.0 1.0
21 1 3 21.0 1.0 1.0
22 2 1 1.0 1.0 5.0
23 2 1 2.0 1.0 5.0
24 2 1 3.0 1.0 5.0
25 2 1 4.0 1.0 5.0
26 2 1 5.0 1.0 5.0
27 2 1 6.0 1.0 5.0
28 2 1 7.0 1.0 5.0
29 2 1 8.0 1.0 5.0
30 2 1 9.0 1.0 5.0
31 2 1 10.0 1.0 5.0
32 2 2 11.0 1.0 5.0
33 2 2 12.0 1.0 5.0
34 2 2 13.0 1.0 5.0
35 2 2 14.0 1.0 5.0
36 2 2 15.0 1.0 5.0
37 2 2 16.0 1.0 5.0
38 2 2 17.0 1.0 5.0
39 2 3 18.0 1.0 5.0
40 2 3 19.0 1.0 5.0
41 2 3 20.0 1.0 5.0
42 2 3 21.0 1.0 5.0

Bonds

1 1 1 2
2 1 2 3
3 1 3 4
4 1 4 5
5 1 5 6
6 1 6 7
7 1 7 8
8 1 8 9
9 1 9 10
10 1 10 11
11 1 11 12
12 1 12 13
13 1 13 14
14 1 14 15
15 1 15 16
16 1 16 17
17 1 17 18
18 1 18 19
19 1 19 20
20 1 20 21
21 1 22 23
22 1 23 24
23 1 24 25
24 1 25 26
25 1 26 27
26 1 27 28
27 1 28 29
28 1 29 30
29 1 30 31
30 1 31 32
31 1 32 33
32 1 33 34
33 1 34 35
34 1 35 36
35 1 36 37
36 1 37 38
37 1 38 39
38 1 39 40
39 1 40 41
40 1 41 42

Angles

1 1 1 2 3
2 1 2 3 4
3 1 3 4 5
4 1 4 5 6
5 1 5 6 7
6 1 6 7 8
7 1 7 8 9
8 1 8 9 10
9 1 9 10 11
10 1 10 11 12
11 1 11 12 13
12 1 12 13 14
13 1 13 14 15
14 1 14 15 16
15 1 15 16 17
16 1 16 17 18
17 1 17 18 19
18 1 18 19 20
19 1 19 20 21
20 1 22 23 24
21 1 23 24 25
22 1 24 25 26
23 1 25 26 27
24 1 26 27 28
25 1 27 28 29
26 1 28 29 30
27 1 29 30 31
28 1 30 31 32
29 1 31 32 33
30 1 32 33 34
31 1 33 34 35
32 1 34 35 36
33 1 35 36 37
34 1 36 37 38
35 1 37 38 39
36 1 38 39 40
37 1 39 40 41
38 1 40 41 42
