ITEM: TIMESTEP
254000
ITEM: NUMBER OF ATOMS
12
ITEM: BOX BOUNDS pp pp pp
-2.5000000000000000e+01 2.7000000000000000e+01
-2.5000000000000000e+01 2.7000000000000000e+01
-2.5000000000000000e+01 2.7000000000000000e+01
ITEM: ATOMS id type mol x y z vx vy vz fx fy fz
1 1 1 -0.320329 0.364225 6.25116 -0.241949 -0.175245 -0.18961 1.01548 0.627654 1.26847
2 1 1 0.78763 0.29732 6.49127 -0.179868 -0.727671 -0.63 -1.86369 -1.66125 -0.417451
3 1 1 1.12387 -0.0304682 7.5257 0.0647905 -0.551262 -0.653626 -0.139482 3.32787 -1.41695
6 1 1 -1.09091 0.0988077 7.04232 -0.0633038 0.551804 0.228297 1.661 0.795257 0.273839
11 1 2 1.33279 1.10389 6.96376 -0.0139195 0.160142 -0.063537 1.37662 0.436645 2.85349
10 1 2 2.46378 1.00112 6.96149 -0.0369653 -0.106899 0.54418 -1.501 -0.126207 0.435151
9 1 2 3.11401 1.86278 7.31491 -0.0239831 -0.266999 0.910631 -1.68549 -0.758748 -0.0156188
8 1 2 2.63338 2.82841 7.67029 0.0124984 -0.160085 0.66946 -1.14097 -1.81615 -0.405753
4 1 1 0.353796 -0.297807 8.31655 0.2422 0.175387 -0.235242 0.117364 1.29667 -1.18727
5 1 1 -0.753776 -0.233126 8.07475 0.17813 0.726986 0.205782 1.27385 1.16085 -0.858971
12 1 2 0.853057 2.07183 7.31516 0.0252518 0.266919 -0.304183 0.800053 -1.3495 -0.121869
7 1 2 1.5027 2.93302 7.67044 0.0371177 0.106921 0.0619474 0.0862538 -1.9331 -0.407053
