ITEM: TIMESTEP
167000
ITEM: NUMBER OF ATOMS
12
ITEM: BOX BOUNDS pp pp pp
-2.5000000000000000e+01 2.7000000000000000e+01
-2.5000000000000000e+01 2.7000000000000000e+01
-2.5000000000000000e+01 2.7000000000000000e+01
ITEM: ATOMS id type mol x y z vx vy vz fx fy fz
2 1 1 -0.980771 -0.367014 5.0638 -0.102317 -0.360991 0.683843 1.54982 1.35906 0.740251
1 1 1 -0.0491968 -1.01316 4.99772 -0.0338743 -0.258003 0.641685 0.532289 2.05893 0.806149
6 1 1 0.948028 -0.612916 5.36583 0.0676642 0.101956 -0.0247576 -0.554222 1.68607 0.385834
5 1 1 1.01411 0.433939 5.80111 0.101164 0.359604 -0.649492 0.197168 2.4545 -0.78773
3 1 1 -0.914567 0.678353 5.50352 -0.0666386 -0.100796 0.0599006 1.53953 0.216299 0.243108
10 1 2 0.946768 1.99989 5.66461 0.148073 0.791032 -0.294634 -0.895451 -3.52967 0.626835
9 1 2 1.79013 1.45831 5.13019 -0.0474597 0.414194 -0.221316 -1.25626 -1.4518 1.53743
8 1 2 2.82667 1.42455 5.59299 -0.196121 -0.376999 0.0539256 -1.50437 -0.37419 0.271509
4 1 1 0.0826833 1.07975 5.87 0.0340018 0.25823 -0.607208 2.29232 1.63937 -0.542838
11 1 2 1.13881 2.5074 6.66224 0.194635 0.377276 -0.093114 0.373549 -1.73168 -1.02688
7 1 2 3.02025 1.93394 6.58919 -0.147977 -0.791313 0.256421 -1.59508 -0.859135 -0.823935
12 1 2 2.17709 2.47696 7.12223 0.0488496 -0.414191 0.183578 -0.679303 -1.46777 -1.42972
