ITEM: TIMESTEP
155000
ITEM: NUMBER OF ATOMS
12
ITEM: BOX BOUNDS pp pp pp
-2.5000000000000000e+01 2.7000000000000000e+01
-2.5000000000000000e+01 2.7000000000000000e+01
-2.5000000000000000e+01 2.7000000000000000e+01
ITEM: ATOMS id type mol x y z vx vy vz fx fy fz
6 1 1 -0.52146 -0.182946 5.13146 -0.071206 -0.243444 0.180815 1.04671 1.1562 1.44557
5 1 1 0.262281 -0.907311 5.51977 -0.0229558 -0.132602 0.290199 0.179456 1.94418 1.00539
4 1 1 0.799788 -0.691891 6.49653 0.048308 0.110949 0.197268 -0.259155 2.07168 -0.000640122
3 1 1 0.553266 0.247939 7.08464 0.0712945 0.243573 -0.00503475 1.49106 2.33678 -1.42559
1 1 1 -0.766264 0.757786 5.71905 -0.0482826 -0.110902 -0.0218348 1.42575 0.152663 0.840264
9 1 2 1.38771 1.01268 6.72641 -0.143252 0.00667262 0.728245 -2.13852 -1.53348 0.350827
2 1 1 -0.227326 0.975374 6.69471 0.0228419 0.132426 -0.115389 2.22951 0.587336 -0.318937
10 1 2 2.48874 0.956987 6.99992 0.0182868 -0.0078846 0.0750145 -1.19411 0.119522 -0.501944
8 1 2 0.882359 2.02276 6.60769 -0.16203 0.0144214 0.874109 -0.108255 -2.00897 0.0398842
7 1 2 1.47753 2.97701 6.76434 -0.0181672 0.00792736 0.367065 0.110845 -2.01635 -0.231773
11 1 2 3.08542 1.91086 7.15422 0.160718 -0.0148246 -0.432879 -1.67763 -0.830953 -0.663538
12 1 2 2.57796 2.92076 7.03969 0.144445 -0.00631215 -0.28572 -1.10568 -1.97861 -0.539525
