ITEM: TIMESTEP
306000
ITEM: NUMBER OF ATOMS
12
ITEM: BOX BOUNDS pp pp pp
-2.5000000000000000e+01 2.7000000000000000e+01
-2.5000000000000000e+01 2.7000000000000000e+01
-2.5000000000000000e+01 2.7000000000000000e+01
ITEM: ATOMS id type mol x y z vx vy vz fx fy fz
4 1 1 -1.07735 0.156753 3.95608 -0.224423 -0.0126684 0.605252 1.63922 0.726633 0.169606
5 1 1 -0.439796 1.07141 4.17124 -0.32515 -0.0588077 1.09986 2.0062 0.222633 -0.291996
6 1 1 0.653859 0.947859 4.45123 -0.100051 -0.0472761 0.225697 -31.4528 -3.04042 16.3636
11 1 2 0.859874 1.81298 3.85263 -0.00540792 -0.0612972 0.0903227 0.852264 2.44257 -2.1298
9 1 2 2.66632 1.07901 4.1172 0.113323 -0.0135618 -0.587918 -1.50235 -0.0172404 -0.00430101
10 1 2 1.54377 0.925294 4.03703 0.107557 -0.0742263 -0.390859 29.5031 -2.44908 -13.253
12 1 2 1.30085 2.85418 3.74325 -0.113751 0.0143722 0.373848 0.277481 -1.97276 0.38769
8 1 2 3.10585 2.1209 4.01223 0.00591972 0.0603706 -0.303813 -1.66857 -1.04978 0.0485254
7 1 2 2.42305 3.00869 3.82523 -0.10764 0.0743426 0.177161 -0.930138 -2.01578 0.251759
2 1 1 0.47414 -1.00554 4.29661 0.323715 0.0613684 -1.63943 -0.043979 2.09565 -0.217524
3 1 1 -0.620907 -0.881209 4.02103 0.101421 0.0449744 -0.763522 1.15711 1.88375 0.101032
1 1 1 1.11034 -0.0903237 4.51418 0.224486 0.0124094 -1.14333 0.162407 3.17382 -1.42559
