ITEM: TIMESTEP
933000
ITEM: NUMBER OF ATOMS
12
ITEM: BOX BOUNDS pp pp pp
-2.5000000000000000e+01 2.7000000000000000e+01
-2.5000000000000000e+01 2.7000000000000000e+01
-2.5000000000000000e+01 2.7000000000000000e+01
ITEM: ATOMS id type mol x y z vx vy vz fx fy fz
4 1 1 -0.505582 0.181863 0.399751 0.673093 -0.262634 -0.211838 1.06363 0.771337 0.911754
12 1 2 1.35172 2.58726 0.233309 -0.507898 0.0738856 0.552371 0.207485 -1.6408 1.02433
11 1 2 2.48371 2.68095 0.21463 -0.538561 0.332739 -0.0074525 -1.01119 -1.66808 1.0118
3 1 1 -0.452597 -0.852808 0.865129 0.811947 -0.229563 -0.154119 0.969127 1.8601 0.394048
5 1 1 -0.0370501 1.06835 0.932659 -0.139614 -0.0334246 0.121407 2.67388 1.34587 0.558331
6 1 1 0.484265 0.919928 1.93063 -0.813123 0.228756 0.512224 -2.45899 0.0480967 -1.16872
8 1 2 1.48332 1.25137 1.67073 0.537809 -0.33202 0.0793965 2.35483 0.542257 -1.436
9 1 2 2.6148 1.3477 1.65589 0.508551 -0.0744445 -0.479361 -1.22791 -0.212571 -0.572921
7 1 2 0.851603 1.87122 0.959331 0.0295123 -0.257863 0.595379 -1.30184 -3.43227 1.2575
10 1 2 3.11456 2.06254 0.928285 -0.0294131 0.257704 -0.522546 -1.69226 -0.9944 0.229604
2 1 1 0.0726102 -1.00301 1.86119 0.140696 0.03441 0.239627 0.36824 2.02594 -0.733366
1 1 1 0.538638 -0.115374 2.3947 -0.672998 0.262455 0.570987 0.0550092 1.35452 -1.47635
