ITEM: TIMESTEP
403000
ITEM: NUMBER OF ATOMS
12
ITEM: BOX BOUNDS pp pp pp
-2.5000000000000000e+01 2.7000000000000000e+01
-2.5000000000000000e+01 2.7000000000000000e+01
-2.5000000000000000e+01 2.7000000000000000e+01
ITEM: ATOMS id type mol x y z vx vy vz fx fy fz
3 1 1 -0.0696562 -1.0175 4.45541 0.604052 0.134326 -0.330688 0.516739 2.0355 0.501454
4 1 1 0.947883 -0.518876 4.53232 0.287192 0.784336 -0.352733 -0.591143 1.57988 0.438121
10 1 2 0.924242 1.90461 4.53636 0.207085 0.37236 -0.00592681 -0.228257 -3.30474 1.80908
9 1 2 1.74617 2.37238 3.90723 0.533227 0.933057 0.837051 -0.20549 -1.38853 1.15614
8 1 2 2.80561 2.43387 4.31163 0.32626 0.560912 1.43585 -1.34131 -1.37731 0.657265
7 1 2 3.04268 2.02934 5.34581 -0.20717 -0.372514 1.19301 -1.60207 -0.93924 -0.465165
2 1 1 -1.00108 -0.467401 4.80237 0.318909 -0.65157 0.149884 1.56936 1.40922 0.10221
1 1 1 -0.914108 0.585153 5.21982 -0.287243 -0.783957 0.609952 1.57711 0.322166 -0.353998
6 1 1 0.103061 1.08501 5.29518 -0.605309 -0.133487 0.588558 2.99572 1.36084 -0.964815
5 1 1 1.03418 0.532575 4.95229 -0.317601 0.650352 0.106995 -0.451331 3.03277 0.33555
11 1 2 1.16095 1.49741 5.56973 -0.325952 -0.560339 -0.251364 -1.28315 -2.13739 -1.86013
12 1 2 2.22007 1.56344 5.97523 -0.533451 -0.933476 0.35136 -0.956175 -0.593157 -1.35572
