ITEM: TIMESTEP
577000
ITEM: NUMBER OF ATOMS
12
ITEM: BOX BOUNDS pp pp pp
-2.5000000000000000e+01 2.7000000000000000e+01
-2.5000000000000000e+01 2.7000000000000000e+01
-2.5000000000000000e+01 2.7000000000000000e+01
ITEM: ATOMS id type mol x y z vx vy vz fx fy fz
3 1 1 -0.832719 0.688204 1.34992 0.0258783 -0.0173997 0.0859028 1.57577 0.221264 0.367151
1 1 1 1.09173 0.306214 1.47835 0.0247715 0.0709615 0.365293 -0.206036 -13.6451 -3.37883
2 1 1 0.24274 0.96421 1.10963 0.050101 0.0534111 0.275652 -0.0369501 0.610325 -0.736567
9 1 2 1.12784 1.98948 0.837961 0.28549 -0.157042 -0.625739 -0.679432 -2.59051 1.38311
7 1 2 2.88651 2.63863 1.43276 0.0479828 -0.0157632 -0.077675 -1.42342 -1.6101 0.237438
8 1 2 2.03145 2.66038 0.68592 0.33367 -0.172892 -0.409335 -0.493456 -1.63111 1.04644
5 1 1 -0.209004 -0.896074 2.33436 -0.0504584 -0.0535103 0.0761541 0.688688 1.8863 -0.735168
4 1 1 -1.05867 -0.240188 1.96389 -0.0247452 -0.070975 -0.013739 1.61352 1.17651 -0.334377
6 1 1 0.866205 -0.623415 2.0908 -0.0255472 0.0175125 0.265634 -0.434682 1.87958 -0.494715
10 1 2 1.08024 1.29549 1.73589 -0.0479912 0.0157668 -0.509854 1.63622 15.1557 4.8487
11 1 2 1.93612 1.27116 2.48194 -0.333338 0.172755 -0.177383 -0.850364 -0.598039 -1.43839
12 1 2 2.83756 1.94591 2.33146 -0.285814 0.157175 0.0374466 -1.38986 -0.854825 -0.764803
