ITEM: TIMESTEP
163000
ITEM: NUMBER OF ATOMS
12
ITEM: BOX BOUNDS pp pp pp
-2.5000000000000000e+01 2.7000000000000000e+01
-2.5000000000000000e+01 2.7000000000000000e+01
-2.5000000000000000e+01 2.7000000000000000e+01
ITEM: ATOMS id type mol x y z vx vy vz fx fy fz
2 1 1 -0.73035 -0.821372 5.93762 -0.243247 0.227924 0.219122 1.26461 1.85596 -0.228913
3 1 1 -1.09353 0.254803 5.91584 0.0617263 0.33677 0.51194 1.68194 0.637328 -0.208641
1 1 1 0.380354 -1.04215 6.02304 -0.304675 -0.109986 0.144482 0.0539962 2.08961 -0.325597
6 1 1 1.12723 -0.188373 6.08131 -0.0616634 -0.337434 0.362238 0.0696104 2.77642 -0.557354
4 1 1 -0.346996 1.10888 5.97216 0.304793 0.109943 0.729779 1.13631 -0.195029 -0.235768
5 1 1 0.763575 0.887171 6.05492 0.243065 -0.227218 0.654894 -22.65 -2.77961 0.594595
12 1 2 2.39449 0.940779 5.09916 0.774545 0.249077 -0.527449 -1.27675 0.113163 0.831344
7 1 2 2.62934 1.83016 4.43299 0.452595 0.349636 -0.506697 -1.15762 -0.756567 1.3164
8 1 2 2.21889 2.85681 4.69163 -0.322597 0.101108 -0.75039 -0.710272 -1.86976 1.03281
11 1 2 1.74555 1.07595 6.02173 0.323559 -0.102577 -0.793153 22.3112 3.11354 -1.1722
10 1 2 1.33764 2.1036 6.28104 -0.452561 -0.34938 -1.03593 -0.69933 -2.88432 -1.07636
9 1 2 1.5738 2.99376 5.6162 -0.775541 -0.247863 -1.01473 -0.0236581 -2.10073 0.0296895
