ITEM: TIMESTEP
659000
ITEM: NUMBER OF ATOMS
12
ITEM: BOX BOUNDS pp pp pp
-2.5000000000000000e+01 2.7000000000000000e+01
-2.5000000000000000e+01 2.7000000000000000e+01
-2.5000000000000000e+01 2.7000000000000000e+01
ITEM: ATOMS id type mol x y z vx vy vz fx fy fz
2 1 1 -0.234649 0.572433 2.14789 -0.146966 0.30828 0.18378 1.0356 0.428819 1.28095
3 1 1 -0.367686 -0.553215 2.22369 -0.0778708 0.276034 -0.173816 0.858899 1.53208 1.05998
1 1 1 0.153501 1.15774 3.04033 -0.0690648 0.0325168 0.330758 0.358605 -0.0124008 -0.89691
10 1 2 1.40148 1.53595 2.40267 -0.0670303 0.106859 0.327404 -1.25898 -0.936151 1.57837
9 1 2 1.17224 1.1937 3.46119 0.0378421 -0.0481301 0.300004 2.33628 0.451388 -0.409024
11 1 2 2.21143 2.3103 2.21812 -0.104966 0.155053 0.363128 -0.705917 -1.25899 1.12168
12 1 2 2.79554 2.73813 3.09351 -0.0377851 0.0481538 0.370546 -1.34211 -1.72559 0.119944
4 1 1 -0.119872 -1.09185 3.19239 0.069091 -0.0325155 -0.382979 0.581389 2.10563 -0.0217203
5 1 1 0.265693 -0.505436 4.08504 0.146958 -0.308484 -0.235317 0.238057 1.60631 -1.04054
6 1 1 0.403297 0.619279 4.00875 0.0778523 -0.275831 0.121412 -0.353841 -0.0319944 -0.339456
8 1 2 1.75361 1.6253 4.3361 0.104877 -0.155038 0.308198 -0.679609 -0.822531 -1.41143
7 1 2 2.56542 2.39767 4.1523 0.0670627 -0.106898 0.343477 -1.06836 -1.33657 -1.04186
