ITEM: TIMESTEP
926000
ITEM: NUMBER OF ATOMS
12
ITEM: BOX BOUNDS pp pp pp
-2.5000000000000000e+01 2.7000000000000000e+01
-2.5000000000000000e+01 2.7000000000000000e+01
-2.5000000000000000e+01 2.7000000000000000e+01
ITEM: ATOMS id type mol x y z vx vy vz fx fy fz
9 1 2 1.90392 1.81044 1.07799 -0.474335 -0.0851236 -0.237799 -0.427457 -0.774287 1.63093
3 1 1 0.909353 -0.227324 2.29574 -0.142839 -0.714396 -0.149803 -0.246257 2.43488 0.218399
2 1 1 0.269311 0.677051 2.04478 0.423368 -0.381285 -0.393424 1.80675 1.15563 0.976524
8 1 2 1.24545 1.21062 1.78253 -0.393706 0.188784 0.070752 -0.779346 -1.37905 1.37945
7 1 2 1.32545 1.36613 2.90448 0.0803844 0.27372 0.0251749 -0.743363 -1.2031 -1.16847
10 1 2 2.64102 2.56713 1.49543 -0.0804402 -0.27367 -0.591546 -1.18555 -1.57456 1.1231
6 1 1 -0.874934 0.294812 3.59931 0.143519 0.714181 -0.330052 1.43846 0.62327 -1.07793
5 1 1 -0.237192 -0.611706 3.84679 -0.423916 0.381625 -0.0859601 0.726991 1.62003 -1.33694
4 1 1 0.655125 -0.872887 3.19493 -0.567163 -0.33279 0.00419745 -0.22577 1.9624 -0.638694
1 1 1 -0.621379 0.939004 2.69881 0.567032 0.332666 -0.483729 1.44508 -0.0427057 -0.10859
12 1 2 2.06401 2.12151 3.32147 0.473694 0.0846779 -0.328993 -0.535713 -1.0685 -0.900415
11 1 2 2.71987 2.72522 2.61726 0.394402 -0.188389 -0.636939 -1.27382 -1.75402 -0.0973664
