ITEM: TIMESTEP
380000
ITEM: NUMBER OF ATOMS
12
ITEM: BOX BOUNDS pp pp pp
-2.5000000000000000e+01 2.7000000000000000e+01
-2.5000000000000000e+01 2.7000000000000000e+01
-2.5000000000000000e+01 2.7000000000000000e+01
ITEM: ATOMS id type mol x y z vx vy vz fx fy fz
6 1 1 -0.825055 0.717622 4.15199 0.169145 0.167769 -0.0874373 1.42014 0.12738 0.259842
5 1 1 0.255629 1.04131 4.02127 0.245046 -0.0133448 0.0915742 2.66296 0.7852 -0.560639
12 1 2 1.28696 1.46034 3.53195 0.144134 -0.48435 0.397813 -1.925 -2.51404 2.90351
4 1 1 1.09754 0.356508 4.35534 0.0759928 -0.181076 0.173785 -2.11109 1.13352 -0.488183
11 1 2 2.04684 0.843714 4.1089 0.603328 0.0159126 0.327687 0.786887 1.20216 -0.153481
10 1 2 2.74559 1.35189 4.84594 0.457755 0.501309 0.131026 -1.43388 -0.277228 -0.580995
7 1 2 1.2209 2.58212 3.69684 -0.458001 -0.501399 0.272593 0.235268 -1.87674 0.79688
8 1 2 1.9182 3.08898 4.43591 -0.602441 -0.0165663 0.0763699 -0.357234 -2.10254 -0.0793127
1 1 1 -1.06375 -0.290107 4.61854 -0.0759346 0.181031 -0.184179 1.62788 1.23532 -0.245051
2 1 1 -0.22243 -0.974539 4.95535 -0.245326 0.0132359 -0.102032 0.716397 1.98383 -0.617155
3 1 1 0.858351 -0.651841 4.82005 -0.168923 -0.167615 0.076933 -0.417907 1.74167 -0.517233
9 1 2 2.68123 2.47401 5.00981 -0.144775 0.485093 0.00543654 -1.20442 -1.43853 -0.718187
