ITEM: TIMESTEP
482000
ITEM: NUMBER OF ATOMS
12
ITEM: BOX BOUNDS pp pp pp
-2.5000000000000000e+01 2.7000000000000000e+01
-2.5000000000000000e+01 2.7000000000000000e+01
-2.5000000000000000e+01 2.7000000000000000e+01
ITEM: ATOMS id type mol x y z vx vy vz fx fy fz
2 1 1 1.1422 -0.0525489 8.34137 0.135658 0.120841 1.50546 -0.703741 1.98083 -0.725187
4 1 1 -0.657797 0.129108 7.56612 0.877809 0.266576 -0.183556 1.28425 0.837513 0.72956
3 1 1 0.466573 0.0399734 7.4328 1.01347 0.387262 0.879829 0.866394 2.35769 0.997771
5 1 1 -1.10793 0.121206 8.60856 -0.135896 -0.120814 -0.624216 1.68116 0.792428 -0.400468
6 1 1 -0.433668 0.0242035 9.51724 -1.01352 -0.387365 -0.00145623 0.951243 0.90018 -1.41161
1 1 1 0.690902 -0.0629901 9.38344 -0.877521 -0.266501 1.06279 -0.290579 1.07693 -1.33281
8 1 2 1.19605 1.25661 7.50053 -0.0394116 -0.186478 0.493254 -0.508523 -2.31787 1.18402
9 1 2 2.27224 1.17541 7.14703 -0.214906 0.116855 -0.1107 -0.933533 -0.16033 1.20673
10 1 2 3.05908 1.8862 7.55425 -0.175944 0.303257 -0.511346 -1.6381 -0.807076 0.64688
7 1 2 0.907137 2.0473 8.26258 0.176134 -0.303364 0.69625 0.733196 -1.2215 -0.126864
12 1 2 1.69467 2.75653 8.67087 0.216105 -0.116836 0.295136 -0.112026 -1.76388 -0.589491
11 1 2 2.77054 2.67899 8.31446 0.0380225 0.186566 -0.308444 -1.32974 -1.67491 -0.178528
