ITEM: TIMESTEP
858000
ITEM: NUMBER OF ATOMS
12
ITEM: BOX BOUNDS pp pp pp
-2.5000000000000000e+01 2.7000000000000000e+01
-2.5000000000000000e+01 2.7000000000000000e+01
-2.5000000000000000e+01 2.7000000000000000e+01
ITEM: ATOMS id type mol x y z vx vy vz fx fy fz
6 1 1 0.136905 -0.279769 0.999218 0.465951 -0.153414 -0.335651 0.396703 1.34021 1.31442
12 1 2 1.45753 1.43059 1.35602 -0.581098 -0.325963 -0.0637751 -1.99858 -1.29696 1.10811
7 1 2 2.15504 2.29917 1.13472 -0.696563 -0.440194 -0.876051 -0.666356 -1.27026 1.12449
5 1 1 -0.0880352 -1.05994 1.79324 0.481306 -0.089501 -0.268504 0.549016 2.06974 0.367561
4 1 1 -0.20931 -0.747036 2.87803 0.0153988 0.0635108 -0.364726 0.711955 1.77118 -0.820229
1 1 1 0.242425 0.813051 1.29038 -0.0153539 -0.0635871 -0.498368 2.48698 1.04066 1.66126
2 1 1 0.123888 1.12657 2.37544 -0.48157 0.0904418 -0.593805 2.40719 -0.241805 -0.407644
11 1 2 1.2825 1.09979 2.42862 0.115617 0.114407 0.185729 -2.19745 -0.312607 -0.875887
8 1 2 2.68184 2.83493 1.98608 -0.115343 -0.114183 -1.44085 -1.19882 -1.82051 0.194764
3 1 1 -0.105589 0.346073 3.16834 -0.465732 0.15255 -0.528085 0.990981 0.764272 -1.34419
10 1 2 1.81182 1.63454 3.27925 0.69632 0.440034 -0.380327 -0.459765 -0.579628 -1.33057
9 1 2 2.51098 2.50203 3.05833 0.581068 0.325899 -1.19325 -1.02185 -1.4643 -0.992078
