ITEM: TIMESTEP
852000
ITEM: NUMBER OF ATOMS
12
ITEM: BOX BOUNDS pp pp pp
-2.5000000000000000e+01 2.7000000000000000e+01
-2.5000000000000000e+01 2.7000000000000000e+01
-2.5000000000000000e+01 2.7000000000000000e+01
ITEM: ATOMS id type mol x y z vx vy vz fx fy fz
5 1 1 -1.06073 0.216412 4.22778 -0.0433898 0.0657775 0.00492149 1.61451 0.658099 -0.334078
4 1 1 -0.295078 1.05031 4.31585 0.211481 -0.281909 1.08121 0.941851 -0.217847 -0.512713
3 1 1 0.781841 0.867092 4.00504 0.255238 -0.346493 1.2709 3.27179 1.06333 -1.93074
11 1 2 1.50403 1.32996 3.1273 -0.160487 -0.592553 0.87643 -1.57855 -1.74917 2.86221
12 1 2 1.37661 2.45872 3.11393 -0.450695 -0.632493 0.270022 0.137134 -1.64745 1.0352
6 1 1 -0.749297 -0.800307 3.82899 -0.254403 0.348721 -0.881245 1.2869 1.78357 0.104996
1 1 1 0.328268 -0.983588 3.52008 -0.211318 0.28206 -0.691406 0.0801882 1.98819 0.451077
2 1 1 1.09528 -0.150966 3.61027 0.0423921 -0.0681575 0.384107 0.392228 2.71875 0.455748
10 1 2 2.11426 0.839064 3.9497 0.289455 0.0400982 0.920197 -3.61359 -0.48045 -0.234289
7 1 2 1.85251 3.09504 3.92544 -0.28959 -0.0400891 -0.288972 -0.312525 -2.14606 -0.00327777
9 1 2 2.592 1.47516 4.76045 0.450316 0.632525 0.360603 -1.26651 -0.400087 -0.996953
8 1 2 2.46031 2.6031 4.74881 0.161001 0.592512 -0.243631 -0.953423 -1.57088 -0.89718
