ITEM: TIMESTEP
795000
ITEM: NUMBER OF ATOMS
12
ITEM: BOX BOUNDS pp pp pp
-2.5000000000000000e+01 2.7000000000000000e+01
-2.5000000000000000e+01 2.7000000000000000e+01
-2.5000000000000000e+01 2.7000000000000000e+01
ITEM: ATOMS id type mol x y z vx vy vz fx fy fz
6 1 1 -0.231072 0.227617 1.46655 0.389968 -0.130066 -1.16312 0.769242 0.734379 1.63121
1 1 1 -0.791547 -0.575352 2.04211 -0.112437 0.231333 -1.14817 1.35171 1.5917 0.944843
2 1 1 -0.545355 -0.769352 3.13365 -0.50238 0.362204 -1.03696 1.09086 1.80552 -0.245017
5 1 1 0.57679 0.836822 1.98227 0.502602 -0.361156 -1.06658 0.933778 1.18599 2.43345
12 1 2 1.14426 1.52003 2.74497 -0.746796 -0.00827208 0.879399 8.80235 23.964 -10.3763
7 1 2 1.36093 2.63348 2.6883 -0.327272 -0.132979 0.0332911 0.137931 -1.89806 0.337402
3 1 1 0.266032 -0.162548 3.64743 -0.390217 0.129203 -0.938905 0.500468 1.4156 -0.92788
4 1 1 0.825437 0.641765 3.07291 0.112464 -0.231519 -0.95445 -23.1903 -28.2388 4.30567
11 1 2 1.76399 0.853143 3.42447 -0.417402 0.127262 0.711992 12.9189 3.19695 4.45474
10 1 2 2.60562 1.30047 4.04195 0.327028 0.132759 -0.306656 -1.23946 -0.204971 -1.18064
8 1 2 2.20095 3.08029 3.30804 0.418982 -0.125481 -0.983623 -0.689562 -2.13716 -0.31437
9 1 2 2.82396 2.41364 3.98419 0.74546 0.00671204 -1.1541 -1.38592 -1.41514 -1.06308
