ITEM: TIMESTEP
4000
ITEM: NUMBER OF ATOMS
12
ITEM: BOX BOUNDS pp pp pp
-2.5000000000000000e+01 2.7000000000000000e+01
-2.5000000000000000e+01 2.7000000000000000e+01
-2.5000000000000000e+01 2.7000000000000000e+01
ITEM: ATOMS id type mol x y z vx vy vz fx fy fz
5 1 1 -0.275085 -1.01118 2.01596 -0.491544 0.155991 0.0821705 0.773747 2.03801 -0.095438
4 1 1 -1.04997 -0.181262 2.0034 -0.223115 0.398668 -0.443121 1.61752 1.13933 -0.082846
9 1 2 1.04861 2.00549 1.63641 0.256498 -0.770006 0.291789 -0.930426 -3.17829 -0.191652
8 1 2 2.02868 2.41942 1.2391 0.26856 -0.661448 0.434642 -0.604788 -1.50396 0.871651
7 1 2 2.96321 2.38182 1.883 0.0115528 0.108686 0.852626 -1.52017 -1.35206 0.167826
6 1 1 0.791216 -0.797125 1.68897 -0.268091 -0.242735 0.549833 -0.405067 1.81802 0.263449
3 1 1 -0.758169 0.862502 1.66378 0.26873 0.242485 -0.500526 1.50791 0.0763779 0.342891
2 1 1 0.309308 1.07865 1.34082 0.490926 -0.155854 -0.0326967 1.98573 1.84231 1.94173
1 1 1 1.08299 0.247369 1.35123 0.223094 -0.398554 0.492274 -0.71526 1.31648 0.943751
11 1 2 1.93835 1.51184 3.32064 -0.267513 0.661407 0.988163 -0.394787 -0.403246 -1.46172
12 1 2 2.91724 1.93024 2.92411 -0.257453 0.770028 1.12761 -1.49251 -0.860438 -0.98699
10 1 2 1.00362 1.55225 2.67695 -0.011645 -0.108668 0.568263 0.178101 -0.932523 -1.71265
