ITEM: TIMESTEP
971000
ITEM: NUMBER OF ATOMS
12
ITEM: BOX BOUNDS pp pp pp
-2.5000000000000000e+01 2.7000000000000000e+01
-2.5000000000000000e+01 2.7000000000000000e+01
-2.5000000000000000e+01 2.7000000000000000e+01
ITEM: ATOMS id type mol x y z vx vy vz fx fy fz
5 1 1 -0.905519 -0.31037 0.760532 -0.21938 0.113957 0.646651 1.45073 1.24096 0.565798
9 1 2 2.04444 1.50726 0.174215 -0.177214 -0.439539 0.570452 -0.555631 -0.447171 1.27327
6 1 1 0.121298 -0.690708 0.459319 -0.34084 0.136213 0.2045 0.344912 1.71326 0.91624
1 1 1 1.04323 -0.347739 1.02729 -0.121253 0.0221686 -0.0830698 -0.672471 1.65146 0.218671
4 1 1 -1.01017 0.41433 1.62842 0.121221 -0.0221427 0.801367 1.56787 0.45398 -0.375843
3 1 1 -0.0878113 0.758438 2.19479 0.340243 -0.135942 0.51382 1.02873 0.536312 -1.28765
8 1 2 1.0554 1.51907 0.732249 -0.128243 -0.0144808 0.648256 0.419099 -1.2312 1.22433
7 1 2 0.994309 1.97765 1.76923 0.0488138 0.42523 0.464232 0.269465 -2.0884 -0.363406
10 1 2 2.97193 1.95578 0.6525 -0.0488427 -0.425069 0.307944 -1.53166 -0.857972 0.66333
11 1 2 2.9112 2.41699 1.6885 0.128648 0.0141665 0.12281 -1.47148 -1.36492 -0.463131
2 1 1 0.939261 0.375002 1.89708 0.220008 -0.114253 0.0710783 -0.466154 1.82708 -1.2575
12 1 2 1.92243 2.42429 2.2478 0.176838 0.439692 0.202449 -0.383408 -1.4334 -1.11412
