ITEM: TIMESTEP
383000
ITEM: NUMBER OF ATOMS
12
ITEM: BOX BOUNDS pp pp pp
-2.5000000000000000e+01 2.7000000000000000e+01
-2.5000000000000000e+01 2.7000000000000000e+01
-2.5000000000000000e+01 2.7000000000000000e+01
ITEM: ATOMS id type mol x y z vx vy vz fx fy fz
6 1 1 0.44485 -0.735886 4.08291 0.550429 0.0548092 0.206354 0.000875907 1.76841 0.668714
5 1 1 0.0197658 0.238339 3.683 0.563303 -0.0537186 -0.0717162 0.615223 0.745711 1.10833
4 1 1 -0.407441 1.00795 4.40033 0.0127806 -0.108335 -0.340983 0.996691 -0.174419 0.293784
11 1 2 1.83665 1.11101 3.79213 0.30556 -0.0553272 -0.514167 -0.529764 -0.0379836 0.941041
12 1 2 1.56949 2.17269 3.48885 0.135741 -0.121416 -0.595924 -0.0358783 -1.16558 1.29495
7 1 2 1.71266 3.02757 4.22275 -0.169696 -0.0667974 -0.599959 -0.140487 -2.04256 0.44727
1 1 1 0.440951 -0.941211 5.20004 -0.0127616 0.108343 0.214228 -0.0326739 1.94746 -0.574454
2 1 1 0.0115181 -0.17321 5.918 -0.563289 0.0532904 -0.0561692 0.436701 1.11678 -1.36134
3 1 1 -0.40936 0.80297 5.51742 -0.550462 -0.0543887 -0.332052 0.910815 0.00618842 -0.912534
10 1 2 2.25406 0.906549 4.82832 0.169625 0.0668246 -0.435306 -0.733987 0.304272 -0.203064
8 1 2 2.12762 2.82182 5.25949 -0.305458 0.0548621 -0.521476 -0.591066 -1.81568 -0.677565
9 1 2 2.39923 1.76142 5.562 -0.135772 0.121854 -0.438996 -0.896452 -0.652606 -1.02513
