ITEM: TIMESTEP
42000
ITEM: NUMBER OF ATOMS
12
ITEM: BOX BOUNDS pp pp pp
-2.5000000000000000e+01 2.7000000000000000e+01
-2.5000000000000000e+01 2.7000000000000000e+01
-2.5000000000000000e+01 2.7000000000000000e+01
ITEM: ATOMS id type mol x y z vx vy vz fx fy fz
3 1 1 -0.206436 -0.0818168 0.0993525 0.178873 -0.762974 -0.343493 0.723385 1.0989 1.82221
4 1 1 0.0468474 -0.995209 0.725046 1.03247 -0.207648 0.121636 0.44401 2.09448 1.1103
5 1 1 0.271139 -0.880076 1.83221 0.853435 0.556525 0.0784398 0.201186 1.96598 -0.0914785
2 1 1 -0.24018 0.946641 0.580669 -0.853689 -0.55884 -0.852071 0.934408 0.0287684 1.4268
8 1 2 0.999241 1.6336 1.93771 -0.159348 0.959051 0.351744 -1.53919 -2.12269 -0.562304
9 1 2 1.81962 2.05838 1.27719 0.0967698 1.1381 0.784993 -0.432283 -1.13295 0.658826
10 1 2 2.80318 2.3923 1.73684 0.25647 0.179067 1.13997 -1.39196 -1.42954 0.133704
6 1 1 0.242072 0.148252 2.31329 -0.178986 0.765107 -0.429792 0.625192 1.5433 -0.614161
1 1 1 -0.0131582 1.06116 1.68749 -1.03211 0.20783 -0.8948 2.58077 0.955359 0.694269
7 1 2 1.16315 1.541 3.0575 -0.25668 -0.179062 0.271881 0.0809239 -0.816734 -1.65495
11 1 2 2.96702 2.3025 2.85702 0.160621 -0.959374 1.06273 -1.57539 -1.33769 -1.0859
12 1 2 2.14752 1.87327 3.51635 -0.0978337 -1.13778 0.625344 -0.651045 -0.847176 -1.83731
