ITEM: TIMESTEP
867000
ITEM: NUMBER OF ATOMS
12
ITEM: BOX BOUNDS pp pp pp
-2.5000000000000000e+01 2.7000000000000000e+01
-2.5000000000000000e+01 2.7000000000000000e+01
-2.5000000000000000e+01 2.7000000000000000e+01
ITEM: ATOMS id type mol x y z vx vy vz fx fy fz
4 1 1 -0.0135143 -1.08041 2.22535 0.199736 -0.108378 0.86323 0.470768 2.09309 0.2329
3 1 1 0.371678 -0.354788 1.44111 0.224291 -0.419793 0.587155 0.125194 1.49739 1.20064
1 1 1 0.0471215 1.14629 2.66885 -0.199687 0.108443 -0.170764 2.6884 -0.0684297 -1.10193
8 1 2 1.12485 1.26628 2.19305 -0.171461 0.233996 -0.241973 7.18264 5.52009 7.45105
2 1 1 0.39901 0.759453 1.66077 0.024797 -0.3128 0.0692421 -8.272 -5.53928 -5.4058
9 1 2 1.8352 1.01348 3.0423 -0.305623 0.0396432 -0.187608 -0.777316 0.173919 -0.832446
10 1 2 2.69398 1.71369 3.29206 -0.134203 -0.194445 -0.120751 -1.2233 -0.593577 -0.936652
7 1 2 1.27216 2.22013 1.59486 0.134251 0.194563 -0.229566 -0.0520527 -1.70844 1.07271
12 1 2 2.12989 2.92088 1.84624 0.305694 -0.0392399 -0.16279 -0.584429 -1.92639 0.672214
11 1 2 2.84364 2.66658 2.69264 0.171342 -0.234517 -0.108164 -1.3939 -1.63107 -0.285481
5 1 1 -0.3676 -0.692445 3.23207 -0.0246837 0.311902 0.622332 0.85459 1.66854 -0.858972
6 1 1 -0.336412 0.420846 3.45422 -0.224453 0.420626 0.105507 0.981407 0.514169 -1.20824
