ITEM: TIMESTEP
798000
ITEM: NUMBER OF ATOMS
12
ITEM: BOX BOUNDS pp pp pp
-2.5000000000000000e+01 2.7000000000000000e+01
-2.5000000000000000e+01 2.7000000000000000e+01
-2.5000000000000000e+01 2.7000000000000000e+01
ITEM: ATOMS id type mol x y z vx vy vz fx fy fz
6 1 1 -0.515188 0.293753 1.39908 -1.24048 -0.0214457 1.45952 1.06256 0.673056 1.65246
5 1 1 0.271397 -0.525305 1.41199 -0.751971 0.429939 0.332668 0.192297 1.57225 1.62258
4 1 1 0.802634 -0.786751 2.38091 0.489158 0.450958 -0.342145 -0.329894 1.9645 0.623453
1 1 1 -0.769109 0.852606 2.35479 -0.48892 -0.450894 1.91033 1.34675 0.0477732 0.581919
2 1 1 -0.23645 0.593594 3.32375 0.750854 -0.429066 1.23463 1.06894 0.388063 -0.433906
11 1 2 1.65896 0.878813 3.58799 -0.394162 0.115505 0.2499 -0.952417 -0.415198 -0.827903
10 1 2 1.98827 1.32536 2.5971 0.251303 -0.106675 0.364282 -0.595528 -0.35019 0.49244
8 1 2 2.3097 3.05359 3.48032 0.393511 -0.116161 0.331089 -0.835617 -2.14957 -0.524562
9 1 2 2.31389 2.4122 2.54312 0.645027 -0.222611 0.405066 -0.844268 -1.45581 0.517278
3 1 1 0.546999 -0.228945 3.33664 1.24136 0.0205085 0.110277 0.533252 1.92555 -0.367408
12 1 2 1.65079 1.52241 4.52407 -0.644375 0.223173 0.173689 -0.170036 -0.530686 -1.73465
7 1 2 1.97811 2.60868 4.47101 -0.251304 0.106769 0.215382 -0.476045 -1.66974 -1.6017
