ITEM: TIMESTEP
938000
ITEM: NUMBER OF ATOMS
12
ITEM: BOX BOUNDS pp pp pp
-2.5000000000000000e+01 2.7000000000000000e+01
-2.5000000000000000e+01 2.7000000000000000e+01
-2.5000000000000000e+01 2.7000000000000000e+01
ITEM: ATOMS id type mol x y z vx vy vz fx fy fz
5 1 1 -0.845573 0.623996 0.486369 -0.401501 -0.237263 0.588153 1.38216 0.227488 0.682482
4 1 1 0.169763 0.631731 -0.0219628 -0.653498 0.111693 0.0901283 0.35153 0.227028 1.30243
1 1 1 -0.136422 -0.565368 1.88375 0.653256 -0.111688 0.159761 0.640336 1.57454 -0.873234
3 1 1 1.03139 0.0400358 0.42237 -0.251939 0.348778 -0.372835 0.0229311 1.6361 1.60347
2 1 1 0.880097 -0.556117 1.37748 0.401803 0.237495 -0.338743 -0.182696 2.10677 -0.268421
6 1 1 -0.998968 0.0246744 1.43875 0.251879 -0.349014 0.623065 1.56719 0.884371 -0.366836
7 1 2 1.76706 0.857948 1.46365 0.000840268 0.0145329 0.381266 -1.1672 -0.793381 -1.14991
8 1 2 2.55904 1.20718 0.728682 -0.203666 -0.059693 0.125627 -1.23887 -0.170393 0.452899
9 1 2 2.77604 2.31583 0.612386 -0.204299 -0.0741993 -0.0138444 -1.31921 -1.25794 0.625531
10 1 2 2.19966 3.07531 1.22976 -0.000807266 -0.0145266 0.102729 -0.67372 -2.10797 -0.0662651
12 1 2 1.19235 1.61765 2.08211 0.204657 0.0742297 0.497334 0.422795 -0.591025 -1.07801
11 1 2 1.40557 2.72712 1.96317 0.203275 0.0596563 0.358914 0.194757 -1.73558 -0.864137
