ITEM: TIMESTEP
548000
ITEM: NUMBER OF ATOMS
12
ITEM: BOX BOUNDS pp pp pp
-2.5000000000000000e+01 2.7000000000000000e+01
-2.5000000000000000e+01 2.7000000000000000e+01
-2.5000000000000000e+01 2.7000000000000000e+01
ITEM: ATOMS id type mol x y z vx vy vz fx fy fz
6 1 1 -0.0819627 -1.08261 1.46664 0.507002 -0.190334 0.68224 0.535829 2.1037 0.286436
1 1 1 -0.887331 -0.529905 2.04635 0.206727 -0.0846089 0.164275 1.43724 1.48436 -0.362928
5 1 1 0.821869 -0.519271 1.07235 0.300233 -0.106449 0.328121 -0.429174 1.64009 0.763601
4 1 1 0.921224 0.596307 1.25938 -0.206768 0.0848377 -0.543499 -3.62397 -21.8598 1.90456
11 1 2 1.07202 1.58572 1.26151 0.174797 -0.230155 -0.417246 2.31702 21.9589 1.66668
12 1 2 1.86752 2.18598 0.716167 0.279211 -0.340645 -0.386554 -0.48025 -1.33746 1.25359
2 1 1 -0.790098 0.586303 2.23164 -0.300373 0.104369 -0.708056 1.49961 0.338656 -0.584422
3 1 1 0.116584 1.14813 1.84073 -0.506822 0.192186 -1.06069 4.22824 0.891202 -0.186375
10 1 2 1.19054 1.36382 2.36895 -0.104158 0.110594 -0.319116 -2.08374 -1.72099 -3.19158
7 1 2 2.77647 2.56988 1.27862 0.104203 -0.110618 -0.260738 -1.31206 -1.53333 0.513964
8 1 2 2.89283 2.34975 2.38649 -0.174984 0.230116 -0.163711 -1.43522 -1.2927 -0.688815
9 1 2 2.10033 1.7459 2.9315 -0.279069 0.340708 -0.19253 -0.653503 -0.672568 -1.37471
