ITEM: TIMESTEP
949000
ITEM: NUMBER OF ATOMS
12
ITEM: BOX BOUNDS pp pp pp
-2.5000000000000000e+01 2.7000000000000000e+01
-2.5000000000000000e+01 2.7000000000000000e+01
-2.5000000000000000e+01 2.7000000000000000e+01
ITEM: ATOMS id type mol x y z vx vy vz fx fy fz
10 1 2 1.75632 1.68301 0.919364 -0.14398 0.416101 -0.92158 -0.1922 -0.584713 1.51469
9 1 2 2.67412 2.3072 1.16063 -0.160224 0.397841 -0.812542 -1.22025 -1.28343 1.24503
1 1 1 -0.021224 -1.07425 2.44736 -0.212736 -0.0732687 0.12799 0.486078 2.1293 -0.0575418
6 1 1 -0.710932 -0.348255 1.91127 0.242349 -0.0536618 -0.430944 1.2907 1.34707 0.54001
2 1 1 0.705698 -0.693745 3.23254 -0.455951 -0.0189414 0.326833 -0.293851 1.76743 -0.92404
5 1 1 -0.673562 0.759282 2.15967 0.454828 0.0199948 -0.791317 1.53448 0.216375 0.221067
3 1 1 0.745532 0.414914 3.47711 -0.241415 0.0526897 -0.0328077 0.167344 1.62038 -1.91707
11 1 2 1.06578 1.34093 1.75353 0.0163533 0.0183893 -0.951949 -0.318419 -0.523089 1.5
8 1 2 2.90158 2.59039 2.23664 -0.0161387 -0.0183476 -0.733467 -1.4584 -1.58627 0.054079
12 1 2 1.29165 1.62851 2.82909 0.159987 -0.397751 -0.870849 -2.13714 -2.3856 0.0954603
4 1 1 0.0547714 1.14101 2.94273 0.212925 0.0731874 -0.592251 2.9273 0.565831 -1.42421
7 1 2 2.21027 2.25101 3.07108 0.144002 -0.416233 -0.762622 -0.785653 -1.28329 -0.84749
