ITEM: TIMESTEP
82000
ITEM: NUMBER OF ATOMS
12
ITEM: BOX BOUNDS pp pp pp
-2.5000000000000000e+01 2.7000000000000000e+01
-2.5000000000000000e+01 2.7000000000000000e+01
-2.5000000000000000e+01 2.7000000000000000e+01
ITEM: ATOMS id type mol x y z vx vy vz fx fy fz
3 1 1 -0.456024 0.416455 1.47816 0.220832 0.365918 -0.374185 1.06356 0.531069 1.23466
12 1 2 1.60084 1.93349 1.5625 -0.381524 0.01442 0.151259 -0.14689 -1.09882 1.12906
2 1 1 -1.10655 0.19873 2.38367 0.0846108 0.570434 -0.422874 1.71947 0.716598 0.131248
4 1 1 0.665967 0.24781 1.5294 0.134722 -0.203686 -0.363374 -0.0137731 1.53411 1.57608
5 1 1 1.13903 -0.134597 2.48822 -0.0856844 -0.56986 -0.40067 -0.828175 1.84221 0.0811721
11 1 2 0.954013 1.53872 2.40884 -0.0753476 -0.0057855 0.375833 0.450914 -1.8283 -0.317575
7 1 2 2.62795 2.3645 1.78432 -0.306218 0.0201861 -0.208639 -1.15112 -1.30969 0.836885
8 1 2 3.01099 2.39689 2.85278 0.0754051 0.00576749 -0.345014 -1.56387 -1.34349 -0.324256
1 1 1 -0.632214 -0.181216 3.34302 -0.134577 0.203551 -0.459801 1.15948 1.10292 -0.912023
6 1 1 0.490074 -0.348231 3.39539 -0.219903 -0.366356 -0.448762 -0.0227642 1.49729 -1.0117
10 1 2 1.339 1.56912 3.47681 0.30612 -0.020178 0.238729 0.199514 -0.73721 -1.15618
9 1 2 2.36691 1.99832 3.69897 0.381564 -0.0144101 -0.121485 -0.866347 -0.906694 -1.26737
