ITEM: TIMESTEP
47000
ITEM: NUMBER OF ATOMS
12
ITEM: BOX BOUNDS pp pp pp
-2.5000000000000000e+01 2.7000000000000000e+01
-2.5000000000000000e+01 2.7000000000000000e+01
-2.5000000000000000e+01 2.7000000000000000e+01
ITEM: ATOMS id type mol x y z vx vy vz fx fy fz
7 1 2 1.40652 2.11111 1.28826 -0.179094 -0.384598 0.268573 0.14081 -1.11289 1.34665
3 1 1 -0.56395 -0.917209 2.44244 -0.646577 0.103894 1.09755 1.0746 1.94287 0.0630804
2 1 1 -1.1193 0.0555211 2.63194 0.0100153 0.697051 -0.0229478 1.69979 0.838224 -0.157229
4 1 1 0.571079 -0.940552 2.47552 -0.656729 -0.588396 0.957363 -0.147288 2.04117 0.0178494
5 1 1 1.15201 0.0103709 2.69378 -0.00994084 -0.693684 -0.305402 -0.0153549 4.06456 -0.257466
1 1 1 -0.537377 1.00661 2.84757 0.65652 0.587862 -1.28607 1.44505 -0.129642 -0.527165
12 1 2 1.0728 1.32528 2.03729 -0.384644 0.311304 0.907089 7.14974 3.45587 -10.8919
6 1 1 0.597825 0.984208 2.87889 0.646711 -0.106727 -1.42744 -10.9855 -5.72828 11.0602
11 1 2 1.64706 1.1827 3.00705 -0.204172 0.698566 0.857157 3.09228 -1.24159 -0.69797
8 1 2 2.31796 2.75217 1.5066 0.205184 -0.696695 -0.419247 -0.800856 -1.74013 1.01161
9 1 2 2.89533 2.60726 2.47375 0.383781 -0.312852 -0.468353 -1.4484 -1.59123 -0.0492013
10 1 2 2.56004 1.82252 3.22337 0.178945 0.384274 0.169808 -1.20491 -0.798939 -0.918435
