ITEM: TIMESTEP
461000
ITEM: NUMBER OF ATOMS
12
ITEM: BOX BOUNDS pp pp pp
-2.5000000000000000e+01 2.7000000000000000e+01
-2.5000000000000000e+01 2.7000000000000000e+01
-2.5000000000000000e+01 2.7000000000000000e+01
ITEM: ATOMS id type mol x y z vx vy vz fx fy fz
2 1 1 -0.666806 -0.838051 10.7381 -0.0337742 0.0393255 0.593666 1.19357 1.83718 -0.158265
3 1 1 -0.309949 -0.689689 9.66987 -0.65911 0.423585 0.438136 0.795531 1.67057 1.05559
4 1 1 0.375837 0.178769 9.41413 -0.62558 0.383508 0.391951 0.132878 0.763038 1.41583
6 1 1 0.341873 0.757608 11.2935 0.659304 -0.423143 0.663622 -4.64833 -1.37564 -0.402956
5 1 1 0.70176 0.902513 10.2261 0.0337703 -0.0399454 0.504728 2.01752 0.579516 2.71653
8 1 2 1.1179 2.22288 11.4872 0.485882 -0.0773285 1.05207 0.171625 -1.87687 -1.16248
9 1 2 1.76513 3.05065 11.0563 0.269228 -0.0384208 0.801364 -0.188537 -2.07138 -0.433523
10 1 2 2.63088 2.79438 10.3672 -0.21617 0.0387078 0.16291 -1.15769 -1.78389 0.338409
1 1 1 -0.34243 -0.112198 11.5491 0.62539 -0.38333 0.708309 0.936907 1.11378 -1.05471
7 1 2 1.33527 1.13909 11.2274 0.216153 -0.0386717 0.665164 4.11979 1.46087 -2.89782
11 1 2 2.85064 1.71055 10.1089 -0.484896 0.0768218 -0.22561 -1.46973 -0.629924 0.624399
12 1 2 2.19989 0.883503 10.5367 -0.270196 0.0388915 0.0276252 -1.90353 0.312746 -0.0409903
