ITEM: TIMESTEP
526000
ITEM: NUMBER OF ATOMS
12
ITEM: BOX BOUNDS pp pp pp
-2.5000000000000000e+01 2.7000000000000000e+01
-2.5000000000000000e+01 2.7000000000000000e+01
-2.5000000000000000e+01 2.7000000000000000e+01
ITEM: ATOMS id type mol x y z vx vy vz fx fy fz
3 1 1 0.334903 0.871928 1.92973 0.251905 0.442118 1.01154 0.761247 0.18341 1.20487
4 1 1 -0.645906 0.327863 1.75102 0.279348 0.607893 0.356253 1.18061 0.571304 1.20853
5 1 1 -0.96371 -0.511932 2.44608 0.0275126 0.166017 -0.292783 1.52273 1.48247 0.451915
2 1 1 0.996568 0.580116 2.80584 -0.0278892 -0.167006 1.01996 2.90148 2.06945 -0.109231
12 1 2 1.96464 1.193 2.33865 0.406758 -0.201393 0.501811 -2.83135 -1.34952 1.48593
7 1 2 2.21016 0.87861 3.40205 -0.319239 0.0217632 0.735405 -2.47984 -0.220775 -1.29584
11 1 2 1.741 2.28178 2.10396 0.727044 -0.224036 0.0915566 -0.375801 -1.54634 0.978878
6 1 1 -0.300729 -0.807367 3.31953 -0.251652 -0.441417 -0.286343 0.802114 1.82056 -0.514109
1 1 1 0.679159 -0.261657 3.49893 -0.279225 -0.607604 0.369746 -0.0530507 1.40691 -0.766978
8 1 2 2.22776 1.65254 4.23277 -0.726304 0.223444 0.556134 -0.773546 -0.588118 -1.48477
10 1 2 1.75627 3.05467 2.93589 0.319046 -0.0216915 -0.0889416 -0.190774 -2.09031 0.0161918
9 1 2 1.99988 2.74046 3.99989 -0.407306 0.201913 0.143394 -0.463816 -1.73904 -1.17538
