ITEM: TIMESTEP
861000
ITEM: NUMBER OF ATOMS
12
ITEM: BOX BOUNDS pp pp pp
-2.5000000000000000e+01 2.7000000000000000e+01
-2.5000000000000000e+01 2.7000000000000000e+01
-2.5000000000000000e+01 2.7000000000000000e+01
ITEM: ATOMS id type mol x y z vx vy vz fx fy fz
6 1 1 -0.965298 -0.525761 1.61072 0.0688607 -0.252762 -0.537033 1.54284 1.52202 0.224095
1 1 1 -0.289082 -0.737948 0.723097 0.925586 -0.399323 0.150679 0.785402 1.75903 1.21803
2 1 1 0.69394 -0.180469 0.61089 0.857043 -0.146202 0.807772 -0.270624 1.23038 1.37452
7 1 2 2.16681 2.35059 1.2015 0.0375178 -0.361805 -0.206928 -0.732769 -1.43562 0.811334
5 1 1 -0.659042 0.244916 2.38661 -0.857135 0.146938 -0.568544 1.30965 0.758531 -0.614379
4 1 1 0.322439 0.804692 2.27386 -0.925885 0.399376 0.086264 -25.8384 -25.4127 -10.3067
3 1 1 0.997329 0.593521 1.38512 -0.0684697 0.251973 0.77239 -0.20182 3.66562 1.85906
11 1 2 0.996098 1.4666 2.51375 0.0239945 0.0118874 0.0327449 27.1068 24.7523 7.59709
10 1 2 1.8 1.58304 3.30741 -0.0374868 0.361677 0.0437003 -0.421808 -0.590168 -1.68264
12 1 2 1.18181 1.8476 1.45977 0.0617915 -0.350033 -0.0914241 -0.397769 -3.74741 0.813262
8 1 2 2.96901 2.46892 1.99638 -0.0241983 -0.0117159 -0.196759 -1.53389 -1.46105 -0.0646858
9 1 2 2.786 2.0843 3.04914 -0.0616186 0.34999 -0.071115 -1.34762 -1.04095 -1.229
