ITEM: TIMESTEP
918000
ITEM: NUMBER OF ATOMS
12
ITEM: BOX BOUNDS pp pp pp
-2.5000000000000000e+01 2.7000000000000000e+01
-2.5000000000000000e+01 2.7000000000000000e+01
-2.5000000000000000e+01 2.7000000000000000e+01
ITEM: ATOMS id type mol x y z vx vy vz fx fy fz
2 1 1 -0.919957 0.223147 3.47379 0.203622 0.614148 -0.287669 1.53406 0.756918 1.35233
3 1 1 -0.205235 -0.609591 3.18011 -0.703881 -0.356797 0.256906 0.724296 1.69941 1.69235
4 1 1 0.729007 -0.801877 3.79667 -0.909995 -0.967401 0.378791 -0.300529 1.89545 0.994239
1 1 1 -0.695158 0.86807 4.38112 0.909859 0.966827 -0.713327 1.42868 0.130464 0.447528
9 1 2 1.47794 2.18811 4.44256 0.168261 -0.294712 -0.645464 -0.0335979 -1.38921 0.465094
10 1 2 2.56346 2.48036 4.60506 0.223902 -0.500427 -0.647191 -1.13859 -1.54642 0.232628
6 1 1 0.240016 0.677414 4.99696 0.705515 0.354738 -0.59252 1.77116 2.43056 0.344583
8 1 2 0.897401 1.67523 5.27302 -0.0555338 0.206008 -0.492671 -0.706936 -2.88836 -1.19714
5 1 1 0.951612 -0.158212 4.70524 -0.205119 -0.611514 -0.0460286 -0.520973 1.52195 0.123038
7 1 2 1.40291 1.45293 6.26519 -0.224021 0.500547 -0.340834 -0.0216495 -0.574704 -1.81859
11 1 2 3.06909 2.26078 5.59795 0.0560244 -0.205615 -0.496501 -1.69403 -1.31331 -0.8475
12 1 2 2.48891 1.74364 6.42649 -0.168633 0.294198 -0.341852 -1.04189 -0.722761 -1.78857
