ITEM: TIMESTEP
30000
ITEM: NUMBER OF ATOMS
12
ITEM: BOX BOUNDS pp pp pp
-2.5000000000000000e+01 2.7000000000000000e+01
-2.5000000000000000e+01 2.7000000000000000e+01
-2.5000000000000000e+01 2.7000000000000000e+01
ITEM: ATOMS id type mol x y z vx vy vz fx fy fz
6 1 1 1.03687 -0.41612 1.35751 0.248497 0.349639 0.788253 -0.27231 2.05807 0.559335
1 1 1 0.710691 0.534257 0.827837 0.620507 0.880082 1.51092 1.47259 2.42724 2.03148
2 1 1 -0.308831 0.985041 1.0448 0.371232 0.529803 1.06734 1.23913 -0.00246084 0.834733
7 1 2 1.34844 1.62993 1.13209 -0.323291 -0.121442 0.291546 -1.22232 -2.64681 0.244455
8 1 2 1.9846 0.876029 1.69449 0.0964809 0.00680987 -0.0113559 -1.604 -0.436391 -0.463446
12 1 2 1.34652 2.72026 1.45007 -0.419274 -0.128403 0.314838 0.226779 -1.79741 0.408884
4 1 1 -0.677546 -0.468305 2.31989 -0.620556 -0.880223 -0.826604 1.19666 1.43984 -0.623724
5 1 1 0.343075 -0.916866 2.10426 -0.372757 -0.531255 -0.379642 0.1165 1.95537 -0.39458
3 1 1 -1.00398 0.480944 1.78857 -0.246921 -0.348046 -0.105373 1.57998 0.393106 -0.0462597
9 1 2 2.61857 1.21262 2.57457 0.420094 0.128047 -0.290841 -1.14047 -0.0397432 -0.818113
11 1 2 1.98385 3.0587 2.32746 -0.097284 -0.00637283 0.0338729 -0.453588 -2.08943 -0.560549
10 1 2 2.61776 2.30351 2.89097 0.323274 0.121361 -0.268039 -1.13896 -1.26138 -1.17221
