ITEM: TIMESTEP
393000
ITEM: NUMBER OF ATOMS
12
ITEM: BOX BOUNDS pp pp pp
-2.5000000000000000e+01 2.7000000000000000e+01
-2.5000000000000000e+01 2.7000000000000000e+01
-2.5000000000000000e+01 2.7000000000000000e+01
ITEM: ATOMS id type mol x y z vx vy vz fx fy fz
2 1 1 -0.632478 -0.795015 4.39058 0.172359 -0.18526 -0.421492 1.14314 1.7904 0.407812
1 1 1 0.42263 -0.639393 4.00041 0.0753864 0.105803 -0.567634 -0.00794997 1.6179 0.825853
11 1 2 2.55354 1.00002 4.81883 0.402317 0.401282 0.967406 -1.67555 -0.0281346 -0.187441
12 1 2 2.7653 1.62279 3.89262 0.239245 -0.290409 0.465039 -1.35838 -0.543053 0.936214
7 1 2 2.19318 2.58713 3.71191 -0.161768 -0.694077 -0.419494 -0.657324 -1.55788 1.09941
6 1 1 1.07103 0.18914 4.42851 -0.0972834 0.290828 -0.6642 -0.109897 1.28343 0.727395
3 1 1 -1.03645 -0.123981 5.21341 0.0978105 -0.29049 -0.372274 1.60424 1.03521 -0.528516
4 1 1 -0.389191 0.705839 5.64048 -0.0753597 -0.105795 -0.468694 1.00014 0.198013 -0.994125
5 1 1 0.664734 0.862363 5.24792 -0.172912 0.184914 -0.614682 2.41108 1.83522 0.0724713
10 1 2 1.77357 1.34695 5.56783 0.161618 0.694001 0.581177 -2.56827 -1.3961 -1.81864
9 1 2 1.20247 2.31228 5.38854 -0.239998 0.291982 -0.304075 0.0480405 -2.25065 -0.846671
8 1 2 1.41165 2.93188 4.46005 -0.401414 -0.402779 -0.804068 0.170725 -1.98434 0.306239
