ITEM: TIMESTEP
536000
ITEM: NUMBER OF ATOMS
12
ITEM: BOX BOUNDS pp pp pp
-2.5000000000000000e+01 2.7000000000000000e+01
-2.5000000000000000e+01 2.7000000000000000e+01
-2.5000000000000000e+01 2.7000000000000000e+01
ITEM: ATOMS id type mol x y z vx vy vz fx fy fz
8 1 2 2.19756 1.59056 -0.375159 0.17493 0.481876 -0.0340336 -0.877364 -0.581178 1.35636
9 1 2 2.13581 2.70638 -0.172994 0.248214 0.391216 0.488733 -0.633124 -1.71096 1.06094
10 1 2 1.92073 3.0824 0.877012 0.0732979 -0.0904806 0.625407 -0.365171 -2.10343 -0.126725
1 1 1 -0.440133 -0.935844 1.28526 -0.607176 0.145986 -0.110882 0.935949 1.94728 -0.515896
6 1 1 -0.824597 0.0608591 1.67118 -0.124964 0.249002 0.103454 1.36662 0.831446 -0.948606
2 1 1 0.40231 -0.964391 0.524218 -0.482877 -0.103946 0.0360888 0.0465701 2.01868 0.309316
3 1 1 0.856279 0.00572984 0.145659 0.12536 -0.247652 0.397219 0.573604 1.71794 1.0667
5 1 1 -0.367087 1.03005 1.29554 0.482215 0.102494 0.464969 0.939048 -0.220271 -0.517125
4 1 1 0.473512 1.00255 0.53265 0.607442 -0.145884 0.611901 1.43357 -0.0813664 0.552453
7 1 2 2.04611 0.850905 0.472981 -0.0733151 0.0905028 -0.419674 -2.31504 -0.261522 0.113435
12 1 2 1.83297 1.22746 1.52308 -0.248195 -0.391436 -0.282352 -0.858632 -0.197616 -1.24745
11 1 2 1.76654 2.34334 1.72537 -0.174931 -0.481677 0.239492 -0.246036 -1.359 -1.1034
