ITEM: TIMESTEP
256000
ITEM: NUMBER OF ATOMS
12
ITEM: BOX BOUNDS pp pp pp
-2.5000000000000000e+01 2.7000000000000000e+01
-2.5000000000000000e+01 2.7000000000000000e+01
-2.5000000000000000e+01 2.7000000000000000e+01
ITEM: ATOMS id type mol x y z vx vy vz fx fy fz
2 1 1 -0.580026 -0.225211 6.30751 -0.611234 0.0265492 0.494757 1.12027 1.1683 1.28529
3 1 1 0.443471 -0.688859 6.47489 -0.597559 -0.150816 -0.0801902 -0.0209277 1.73783 1.11217
6 1 1 -0.409103 0.757066 8.00394 0.597516 0.150578 0.301154 1.02453 0.170017 -0.65252
1 1 1 -1.00457 0.499902 7.0715 -0.0136178 0.176869 0.68418 1.57539 0.376688 0.451179
11 1 2 1.45021 1.45097 6.9372 0.108035 0.687238 -1.02489 -0.10789 -0.717403 0.943962
12 1 2 1.01794 2.40012 7.38751 0.255245 0.541063 -0.575476 0.56609 -1.50612 0.239341
4 1 1 1.03847 -0.433528 7.40801 0.0136375 -0.176956 -0.462764 -0.517815 1.70894 0.0116396
5 1 1 0.612045 0.289581 8.17263 0.611258 -0.0262241 -0.272022 0.021375 0.88495 -1.01187
10 1 2 2.41804 1.02028 7.34651 -0.145959 0.14639 -0.993426 -1.14804 -0.0143233 0.303005
7 1 2 1.54857 2.91388 8.25031 0.146082 -0.146435 -0.0989652 0.0258383 -1.93186 -0.761653
9 1 2 2.95012 1.53475 8.20811 -0.254545 -0.540817 -0.516032 -1.51589 -0.417801 -0.715701
8 1 2 2.51484 2.48106 8.66063 -0.108858 -0.687439 -0.0692706 -1.02294 -1.45922 -1.20484
