ITEM: TIMESTEP
529000
ITEM: NUMBER OF ATOMS
12
ITEM: BOX BOUNDS pp pp pp
-2.5000000000000000e+01 2.7000000000000000e+01
-2.5000000000000000e+01 2.7000000000000000e+01
-2.5000000000000000e+01 2.7000000000000000e+01
ITEM: ATOMS id type mol x y z vx vy vz fx fy fz
6 1 1 -0.738102 -0.79602 2.76439 0.175508 -0.227215 -0.176523 1.27473 1.77868 0.223909
5 1 1 -1.09209 0.275202 2.89444 -0.110224 -0.366609 0.193911 1.64951 0.593431 0.0771987
4 1 1 -0.337323 1.10466 3.07248 -0.286439 -0.139248 -0.118292 2.33706 0.572792 -0.067035
3 1 1 0.771274 0.862486 3.12039 -0.176835 0.227466 -0.800897 -28.6493 -22.9183 -20.9021
11 1 2 3.11594 2.03653 2.93546 -0.00719824 0.160985 -0.800643 -1.68857 -0.957717 0.0552992
9 1 2 1.33538 2.66885 2.38616 -0.0752 -0.439979 -1.272 0.208201 -1.82044 0.726313
10 1 2 2.46728 2.73726 2.3207 -0.0821055 -0.279634 -1.22384 -0.976499 -1.7155 0.724818
1 1 1 0.370566 -1.03795 2.81429 0.286192 0.139216 -0.859134 0.0331086 2.04901 0.168261
2 1 1 1.12596 -0.209422 2.99492 0.111797 0.36639 -1.17184 -0.565901 2.00455 0.325616
7 1 2 1.49905 1.19602 3.67926 0.0821722 0.279612 -0.472313 27.4091 11.9886 20.0979
12 1 2 2.63079 1.26357 3.612 0.0755505 0.438963 -0.423703 -1.40326 -0.182678 -0.78811
8 1 2 0.851287 1.89882 3.06619 0.00678105 -0.159946 -0.896549 0.37176 8.6076 -0.642073
