ITEM: TIMESTEP
251000
ITEM: NUMBER OF ATOMS
12
ITEM: BOX BOUNDS pp pp pp
-2.5000000000000000e+01 2.7000000000000000e+01
-2.5000000000000000e+01 2.7000000000000000e+01
-2.5000000000000000e+01 2.7000000000000000e+01
ITEM: ATOMS id type mol x y z vx vy vz fx fy fz
6 1 1 -0.722353 -0.703111 6.88773 -0.691074 0.505636 0.473657 1.26302 1.69456 0.294906
1 1 1 0.181033 -0.36753 6.28653 -0.5282 -0.376626 0.225934 0.251422 1.31821 0.967828
2 1 1 0.921463 0.367619 6.73488 0.161946 -0.883391 -0.0828768 -0.0896566 0.917182 0.703424
12 1 2 2.16478 1.26324 7.78006 0.528849 -0.256829 -0.357703 -1.95282 -0.63837 -0.949606
11 1 2 2.73177 1.1175 6.8065 0.322875 0.347614 -0.568145 -1.54308 -0.0366085 0.352062
7 1 2 1.41936 2.11394 7.88292 0.20578 -0.603692 0.16971 -0.389159 -2.21131 -0.996549
8 1 2 1.23699 2.81715 7.01022 -0.32309 -0.346972 0.48709 0.357447 -1.9289 0.0997353
9 1 2 1.80001 2.66949 6.03506 -0.528709 0.256445 0.277001 -0.23112 -1.66188 1.15706
10 1 2 2.5468 1.81971 5.93335 -0.205705 0.603434 -0.250434 -1.11257 -0.750627 1.293
5 1 1 -0.886259 -0.302969 7.93785 -0.163223 0.882046 0.412618 1.42924 1.24581 -0.861727
4 1 1 -0.147858 0.434126 8.38599 0.528484 0.3769 0.103743 0.669329 0.487893 -1.36393
3 1 1 0.754257 0.770818 7.78369 0.692067 -0.504566 -0.143996 1.34794 1.56403 -0.696199
