ITEM: TIMESTEP
606000
ITEM: NUMBER OF ATOMS
12
ITEM: BOX BOUNDS pp pp pp
-2.5000000000000000e+01 2.7000000000000000e+01
-2.5000000000000000e+01 2.7000000000000000e+01
-2.5000000000000000e+01 2.7000000000000000e+01
ITEM: ATOMS id type mol x y z vx vy vz fx fy fz
2 1 1 -1.09593 0.0953625 3.59967 -0.0781986 0.426051 -0.614811 1.7055 0.887143 -0.751371
3 1 1 -0.49894 1.04368 3.41308 0.347994 0.190169 -0.450064 1.29728 -0.0547065 -0.62561
4 1 1 0.612158 0.981574 3.18607 0.427695 -0.235681 0.056546 -7.35291 -5.50623 -1.67874
5 1 1 1.12824 -0.02923 3.14997 0.0791283 -0.425889 0.399337 -0.53505 1.70057 -0.235079
7 1 2 3.08163 1.69478 2.23949 -0.0387575 -0.00862463 -0.0873167 -1.67799 -0.635813 0.602857
10 1 2 0.885264 2.23857 2.43648 0.0387384 0.00859591 0.72921 0.43444 -2.39615 1.09478
12 1 2 2.56323 2.27518 1.41226 -0.513532 -0.588907 -0.196926 -1.12521 -1.27509 1.5312
11 1 2 1.46561 2.5507 1.51156 -0.474539 -0.579727 0.20861 0.102724 -1.61811 1.44244
1 1 1 -0.578404 -0.91495 3.56594 -0.427653 0.23558 -0.271423 1.13521 1.984 -0.716658
6 1 1 0.533164 -0.977488 3.34084 -0.348965 -0.190231 0.235445 -0.109438 2.0546 -0.464323
8 1 2 2.50123 1.38538 3.16511 0.474753 0.580161 0.431488 -1.40919 -0.493382 -0.399851
9 1 2 1.40275 1.65644 3.26322 0.513338 0.588501 0.84046 7.53464 5.35318 0.20036
