ITEM: TIMESTEP
993000
ITEM: NUMBER OF ATOMS
12
ITEM: BOX BOUNDS pp pp pp
-2.5000000000000000e+01 2.7000000000000000e+01
-2.5000000000000000e+01 2.7000000000000000e+01
-2.5000000000000000e+01 2.7000000000000000e+01
ITEM: ATOMS id type mol x y z vx vy vz fx fy fz
6 1 1 0.916263 -0.452975 2.53892 0.01472 0.23754 -0.221092 -0.450932 1.76308 0.928573
1 1 1 0.263026 0.264824 1.94882 0.00202143 0.481093 0.089226 0.397824 0.811905 1.63177
12 1 2 1.26151 1.1002 3.72528 0.17635 -0.0456525 0.619617 -0.0651516 -0.516481 -0.630783
11 1 2 1.61337 1.39617 2.68648 -0.66176 -0.15929 0.303356 -0.362221 -0.644837 0.660144
10 1 2 2.33263 2.26573 2.55902 -0.837872 -0.113771 -0.379943 -0.826052 -1.21529 0.892681
4 1 1 -0.229757 -0.19882 4.11694 -0.00201628 -0.481236 -0.117482 0.834573 1.26226 -0.967301
3 1 1 -0.883714 0.517366 3.52589 -0.0146707 -0.237279 0.192125 1.52838 0.381487 -0.291791
5 1 1 0.670375 -0.684048 3.6233 0.0126815 -0.243754 -0.324114 -0.167019 1.9717 -0.396294
2 1 1 -0.635908 0.752604 2.44248 -0.0127359 0.243635 0.296986 1.26917 0.11822 0.970278
7 1 2 1.63368 1.66806 4.63575 0.83816 0.113801 0.249641 -0.0667199 -0.568784 -1.40693
8 1 2 2.35487 2.5357 4.50756 0.661635 0.159387 -0.434907 -0.849785 -1.51016 -1.26423
9 1 2 2.70365 2.83519 3.46909 -0.176514 0.0455256 -0.749242 -1.24206 -1.8531 -0.12611
