ITEM: TIMESTEP
746000
ITEM: NUMBER OF ATOMS
12
ITEM: BOX BOUNDS pp pp pp
-2.5000000000000000e+01 2.7000000000000000e+01
-2.5000000000000000e+01 2.7000000000000000e+01
-2.5000000000000000e+01 2.7000000000000000e+01
ITEM: ATOMS id type mol x y z vx vy vz fx fy fz
1 1 1 -0.850822 0.365994 6.04569 -0.650912 -0.507923 0.560039 1.3978 0.497408 0.845246
6 1 1 -0.311072 -0.607595 5.81994 0.494798 0.373904 -0.503735 0.793526 1.58756 1.09865
5 1 1 0.557183 -0.940088 6.47211 1.14515 0.88305 -1.11 -0.162573 1.93987 0.371637
2 1 1 -0.522567 1.00813 6.92296 -1.1478 -0.880351 1.01857 1.04302 -0.208208 -0.106471
10 1 2 1.99243 1.55496 8.04106 -0.0241909 0.35086 0.342416 -0.687115 -0.578753 -1.3761
11 1 2 2.28409 0.886858 7.17027 -0.43288 -0.0652342 0.52477 -1.18348 0.102571 -0.283786
12 1 2 2.27821 1.30089 6.11241 -0.40775 -0.417419 0.386791 -0.789548 -0.170019 0.870802
8 1 2 1.68035 3.04553 6.79568 0.432318 0.06611 -0.112789 -0.103591 -2.05606 0.0845572
9 1 2 1.69029 2.6338 7.85404 0.408237 0.416736 0.0238395 -0.140546 -1.66017 -1.09374
7 1 2 1.97435 2.37901 5.92466 0.0242667 -0.351052 0.0687039 -0.422362 -1.3352 1.03244
4 1 1 0.884414 -0.299978 7.35106 0.651407 0.507837 -0.652923 -0.219484 1.54084 -0.61313
3 1 1 0.343149 0.672487 7.57749 -0.492641 -0.376517 0.410382 0.474355 0.340161 -0.83011
