ITEM: TIMESTEP
591000
ITEM: NUMBER OF ATOMS
12
ITEM: BOX BOUNDS pp pp pp
-2.5000000000000000e+01 2.7000000000000000e+01
-2.5000000000000000e+01 2.7000000000000000e+01
-2.5000000000000000e+01 2.7000000000000000e+01
ITEM: ATOMS id type mol x y z vx vy vz fx fy fz
6 1 1 0.719066 0.698064 0.275587 -0.457502 -0.0403243 -0.339163 -0.11308 0.936493 1.03852
4 1 1 0.436712 -0.702717 1.62696 0.548518 0.448872 0.378115 -0.0375307 1.67522 -0.740396
3 1 1 -0.685102 -0.633105 1.46382 0.457197 0.0397795 0.831504 1.20558 1.61787 -0.574743
5 1 1 1.13886 -0.0369843 1.03269 0.0910588 0.408777 -0.20731 -0.753076 1.20838 0.00304382
2 1 1 -1.10621 0.105061 0.709955 -0.0909103 -0.408338 0.698889 1.67837 0.775781 0.277891
1 1 1 -0.403046 0.768632 0.114186 -0.548362 -0.448766 0.113947 0.978293 0.140401 0.966514
8 1 2 3.056 1.658 1.28149 0.203568 1.19183 -0.012098 -1.61484 -0.532691 -0.314838
7 1 2 2.77519 2.07707 0.264191 0.379868 0.731761 -0.250285 -1.34799 -1.01039 0.790938
12 1 2 1.70238 2.38475 0.0536353 0.177551 -0.460174 -0.961222 -0.235948 -1.50677 1.07029
11 1 2 0.910433 2.27807 0.861079 -0.206583 -1.19187 -1.43466 0.633306 -1.86471 -0.0974942
9 1 2 2.26404 1.54676 2.08782 -0.174957 0.459951 -0.484841 -0.799454 -0.468125 -1.2568
10 1 2 1.19167 1.8564 1.87735 -0.379447 -0.731498 -1.19581 0.40636 -0.971461 -1.16292
