ITEM: TIMESTEP
307000
ITEM: NUMBER OF ATOMS
12
ITEM: BOX BOUNDS pp pp pp
-2.5000000000000000e+01 2.7000000000000000e+01
-2.5000000000000000e+01 2.7000000000000000e+01
-2.5000000000000000e+01 2.7000000000000000e+01
ITEM: ATOMS id type mol x y z vx vy vz fx fy fz
4 1 1 -1.04552 -0.130325 4.34994 0.148025 -0.380584 -0.298828 1.60441 1.04212 -0.287216
3 1 1 -0.553398 -0.898431 3.67336 0.128538 -0.0262999 -0.715213 1.0798 1.90611 0.457347
2 1 1 0.507744 -0.734009 3.30258 -0.0206949 0.35519 -0.973138 -0.0748067 1.77104 0.890336
1 1 1 1.07866 0.19654 3.61537 -0.147893 0.380389 -0.815937 0.60979 3.01573 0.637993
5 1 1 -0.474835 0.801081 4.66005 0.0198276 -0.354499 -0.141257 1.12755 0.135817 -0.706874
6 1 1 0.587633 0.964096 4.29355 -0.127803 0.0258043 -0.400072 -0.0673778 -1.7236 0.839711
10 1 2 1.91983 1.01136 3.64287 0.323812 -0.0963637 0.451561 -2.79989 -1.16109 1.04422
9 1 2 2.86242 1.24852 4.23063 0.177244 0.209812 0.56307 -1.57234 -0.142775 -0.130254
11 1 2 1.03959 1.72854 3.66596 0.14673 -0.306343 0.222794 1.67396 0.282642 -1.03626
12 1 2 1.10538 2.68607 4.27369 -0.177221 -0.209728 0.105635 0.401764 -2.06742 -0.140648
8 1 2 2.92557 2.20381 4.84151 -0.146641 0.306207 0.445809 -1.46744 -1.1379 -0.771437
7 1 2 2.04693 2.92276 4.8631 -0.323925 0.0964156 0.217049 -0.515416 -1.92069 -0.796917
