ITEM: TIMESTEP
257000
ITEM: NUMBER OF ATOMS
12
ITEM: BOX BOUNDS pp pp pp
-2.5000000000000000e+01 2.7000000000000000e+01
-2.5000000000000000e+01 2.7000000000000000e+01
-2.5000000000000000e+01 2.7000000000000000e+01
ITEM: ATOMS id type mol x y z vx vy vz fx fy fz
2 1 1 -1.01586 -0.43518 7.30857 0.153925 -0.107767 1.10829 1.58298 1.37603 -0.055736
3 1 1 -0.227767 -0.905249 6.6389 -0.323516 -0.662992 0.936156 0.694301 1.91025 0.708782
4 1 1 0.805188 -0.439439 6.56174 -0.47482 -0.552481 -0.422281 -0.400581 1.42634 0.773611
1 1 1 -0.771503 0.505781 7.89559 0.474481 0.552114 -0.0829093 1.31159 0.349361 -0.689636
11 1 2 1.62904 2.17996 6.27109 -0.0803081 0.560391 -0.252051 -0.133849 -1.27878 1.25462
10 1 2 2.34267 1.31907 6.46939 -0.295807 0.273671 -0.721282 -1.32204 -0.489562 1.15452
12 1 2 1.27291 2.82981 7.13214 0.216158 0.285561 0.0779885 0.309816 -1.96668 0.190256
6 1 1 0.260792 0.973118 7.8173 0.321943 0.661321 -1.44239 0.40129 0.0326315 -0.633154
5 1 1 1.04944 0.499921 7.15107 -0.152013 0.109806 -1.61171 0.229966 1.0988 -0.0335194
9 1 2 2.6956 1.10494 7.52757 -0.215864 -0.286094 -0.86122 -1.61265 -0.0445142 -0.346096
7 1 2 1.62401 2.61494 8.19067 0.295942 -0.273841 -0.0620248 -0.120716 -1.69527 -1.03809
8 1 2 2.33549 1.75234 8.38835 0.0798782 -0.559688 -0.531721 -0.940094 -0.718604 -1.28556
