ITEM: TIMESTEP
951000
ITEM: NUMBER OF ATOMS
12
ITEM: BOX BOUNDS pp pp pp
-2.5000000000000000e+01 2.7000000000000000e+01
-2.5000000000000000e+01 2.7000000000000000e+01
-2.5000000000000000e+01 2.7000000000000000e+01
ITEM: ATOMS id type mol x y z vx vy vz fx fy fz
1 1 1 0.785953 -0.794135 1.30733 0.578878 0.46941 -0.904269 -0.314915 1.96661 -0.0471953
6 1 1 -0.239768 -1.02738 0.878779 0.32743 -0.221133 0.0734065 0.725198 2.03974 0.425697
5 1 1 -1.00946 -0.200068 0.765342 -0.250788 -0.690626 0.57261 1.56335 1.11751 0.543171
11 1 2 1.90237 0.960031 0.838438 0.166243 0.0144425 -0.891706 -2.02685 -0.813449 1.82299
10 1 2 2.16143 1.8904 0.240933 0.0126979 0.0890739 -0.842068 -0.69184 -0.826078 1.21884
9 1 2 2.24386 2.89639 0.761853 -0.153409 0.0749008 -0.78841 -0.72142 -1.90195 0.580363
2 1 1 1.04266 0.266009 1.6234 0.253211 0.691073 -1.38325 -1.67232 -0.81798 -2.61512
4 1 1 -0.752769 0.860736 1.07867 -0.579302 -0.469618 0.0934932 1.28787 -0.035279 0.204142
12 1 2 1.72069 1.0381 1.95711 0.153277 -0.0752128 -0.887555 1.03894 2.67964 0.00621245
3 1 1 0.27366 1.09379 1.50535 -0.329428 0.220895 -0.884775 1.73701 -0.300194 -0.0556412
8 1 2 2.0665 2.9727 1.88099 -0.166086 -0.0140655 -0.784353 -0.52456 -1.96975 -0.653918
7 1 2 1.80487 2.04343 2.47879 -0.0127222 -0.0891389 -0.833932 -0.400455 -1.13882 -1.42954
