ITEM: TIMESTEP
61000
ITEM: NUMBER OF ATOMS
12
ITEM: BOX BOUNDS pp pp pp
-2.5000000000000000e+01 2.7000000000000000e+01
-2.5000000000000000e+01 2.7000000000000000e+01
-2.5000000000000000e+01 2.7000000000000000e+01
ITEM: ATOMS id type mol x y z vx vy vz fx fy fz
6 1 1 -1.09866 0.237988 4.04494 0.0614454 0.331513 0.522809 1.66891 0.641367 0.00254165
3 1 1 1.13203 -0.169554 4.16108 -0.0609008 -0.331718 0.545397 0.0644739 3.36973 -0.667289
1 1 1 -0.45441 0.334062 3.11442 0.156464 0.473184 0.603223 1.14692 0.656246 1.11691
2 1 1 0.660928 0.127859 3.17106 0.0947156 0.142065 0.613675 0.849228 2.69408 2.0501
11 1 2 1.21951 1.16479 3.72849 -0.529379 0.221744 0.784811 -0.848867 -3.48931 -0.0850053
12 1 2 2.24593 0.870508 4.11628 -0.210803 -0.0721957 -0.281461 -1.70806 -0.472362 -0.130571
10 1 2 0.956365 2.26203 3.59992 -0.314278 0.294443 0.964999 0.665943 -1.31501 0.450002
9 1 2 1.71999 3.06368 3.85368 0.21315 0.0725925 0.0786676 -0.149184 -2.08359 0.194184
8 1 2 2.74742 2.76841 4.237 0.526649 -0.222077 -0.988585 -1.27788 -1.74237 -0.225847
5 1 1 -0.627574 -0.0637858 5.03324 -0.0952638 -0.141673 0.453022 1.13537 0.976299 -1.0791
4 1 1 0.48797 -0.267617 5.0914 -0.15646 -0.473372 0.464309 0.0198526 1.31748 -1.25616
7 1 2 3.01051 1.67164 4.36835 0.31466 -0.294506 -1.16876 -1.5667 -0.552572 -0.369761
