ITEM: TIMESTEP
516000
ITEM: NUMBER OF ATOMS
12
ITEM: BOX BOUNDS pp pp pp
-2.5000000000000000e+01 2.7000000000000000e+01
-2.5000000000000000e+01 2.7000000000000000e+01
-2.5000000000000000e+01 2.7000000000000000e+01
ITEM: ATOMS id type mol x y z vx vy vz fx fy fz
1 1 1 -0.18806 1.0432 2.64173 0.119488 -0.012569 0.369739 1.91308 0.672441 1.17975
6 1 1 -1.04937 0.341307 2.87767 -0.0174211 0.36456 0.991875 1.64893 0.55874 0.290347
5 1 1 -0.844471 -0.669295 3.35352 -0.137497 0.376956 1.0699 1.37412 1.64305 -0.237669
4 1 1 0.22146 -0.977158 3.59514 -0.119377 0.0126535 0.525788 0.240066 2.01778 -0.498674
3 1 1 1.08216 -0.274164 3.36078 0.0188436 -0.36394 -0.0962161 -0.411204 2.40143 0.0358356
2 1 1 0.878562 0.735063 2.88063 0.135964 -0.37766 -0.174716 -0.280261 2.35721 0.976998
8 1 2 1.46482 1.14084 3.75141 -0.355787 0.103901 -0.222877 -0.392996 -1.07927 -1.17325
7 1 2 0.850043 1.89078 3.16065 -0.0125713 0.227316 -0.423374 -0.217207 -3.79644 -1.03728
9 1 2 2.59786 1.21746 3.76055 -0.343401 -0.123375 0.146885 -1.34261 -0.151663 -0.783115
12 1 2 1.36866 2.71715 2.57921 0.342932 0.123385 -0.253993 0.178129 -1.89076 0.651517
10 1 2 3.11612 2.04295 3.17734 0.012504 -0.227235 0.316149 -1.68631 -0.957956 -0.0276804
11 1 2 2.50221 2.79187 2.5841 0.356323 -0.103991 0.115933 -1.02373 -1.77456 0.623225
