ITEM: TIMESTEP
890000
ITEM: NUMBER OF ATOMS
12
ITEM: BOX BOUNDS pp pp pp
-2.5000000000000000e+01 2.7000000000000000e+01
-2.5000000000000000e+01 2.7000000000000000e+01
-2.5000000000000000e+01 2.7000000000000000e+01
ITEM: ATOMS id type mol x y z vx vy vz fx fy fz
1 1 1 -0.558342 -0.387843 0.687093 0.0344223 -0.136097 0.0886436 1.07024 1.32395 0.987381
6 1 1 -0.265546 -1.06649 1.54957 0.826052 -0.206548 -0.235535 0.742341 2.08439 0.0219792
2 1 1 -0.275046 0.711725 0.70707 -0.792026 0.0717192 0.370032 0.944612 0.156881 1.02747
3 1 1 0.297095 1.13285 1.59355 -0.825706 0.20473 0.328582 2.78311 -0.562506 0.181526
11 1 2 1.60898 0.8941 1.61626 0.3953 -0.125979 0.405595 -3.48494 0.0599657 0.933779
12 1 2 1.9357 1.35367 0.630063 -0.548995 -0.10569 0.102211 -0.688054 -0.257182 1.22289
7 1 2 2.3065 2.42668 0.5971 -0.945033 0.0190032 -0.293712 -0.790192 -1.38136 1.07528
5 1 1 0.310355 -0.645573 2.43326 0.791629 -0.0697445 -0.278264 0.167803 1.67882 -0.982873
4 1 1 0.591768 0.454285 2.45532 -0.0343704 0.135941 0.00382868 1.89903 1.77299 -1.96304
10 1 2 1.66043 1.50716 2.57083 0.944761 -0.0189068 0.307216 -1.27911 -1.25449 -1.46559
9 1 2 2.03298 2.5797 2.53872 0.549564 0.106472 -0.0900635 -0.523285 -1.57724 -1.07595
8 1 2 2.35513 3.03974 1.55164 -0.395598 0.125101 -0.389845 -0.841565 -2.04421 0.03714
