ITEM: TIMESTEP
676000
ITEM: NUMBER OF ATOMS
12
ITEM: BOX BOUNDS pp pp pp
-2.5000000000000000e+01 2.7000000000000000e+01
-2.5000000000000000e+01 2.7000000000000000e+01
-2.5000000000000000e+01 2.7000000000000000e+01
ITEM: ATOMS id type mol x y z vx vy vz fx fy fz
1 1 1 -0.118206 -0.484221 1.72697 -0.0807382 -0.0811429 0.473483 0.603552 1.48824 1.36242
2 1 1 0.921927 -0.196815 2.08084 -0.0946372 0.349964 0.164203 -0.270531 1.75801 1.24498
6 1 1 -1.02282 -0.255905 2.37482 0.0145934 -0.430862 0.729845 1.59717 1.20259 0.621021
3 1 1 1.05559 0.324121 3.08148 -0.0156318 0.430571 0.111685 1.1803 3.14686 -1.14672
5 1 1 -0.887786 0.260842 3.37706 0.0957592 -0.349657 0.677041 1.47462 0.658733 -0.495246
4 1 1 0.151579 0.55093 3.73052 0.0806547 0.0811272 0.367913 0.824583 0.819875 -1.34435
12 1 2 2.15485 0.970469 2.72734 0.446792 -0.0495476 0.463966 -2.70626 -1.04765 0.809411
7 1 2 3.02247 1.50875 3.22475 0.0597843 0.105118 0.971641 -1.64974 -0.426601 -0.224724
10 1 2 0.944453 2.42472 3.26215 -0.0599217 -0.105051 -0.531907 0.665163 -1.63219 -0.233475
8 1 2 2.85065 2.50496 3.74187 -0.387741 0.154787 0.727264 -1.40042 -1.47234 -0.7808
9 1 2 1.81143 2.96254 3.76141 -0.448113 0.0497898 -0.0245981 -0.260575 -1.98864 -0.812066
11 1 2 1.11586 1.42961 2.74247 0.389199 -0.155096 -0.287945 -0.0578595 -2.5069 0.999542
