ITEM: TIMESTEP
930000
ITEM: NUMBER OF ATOMS
12
ITEM: BOX BOUNDS pp pp pp
-2.5000000000000000e+01 2.7000000000000000e+01
-2.5000000000000000e+01 2.7000000000000000e+01
-2.5000000000000000e+01 2.7000000000000000e+01
ITEM: ATOMS id type mol x y z vx vy vz fx fy fz
4 1 1 -0.837907 -0.22069 1.37948 -0.320324 0.911686 0.0998094 1.37668 1.14027 0.893248
3 1 1 -0.298733 -1.04787 1.94072 -0.854958 0.29388 -0.297125 0.797349 2.0708 0.281228
2 1 1 0.558398 -0.795161 2.64215 -0.535925 -0.618884 -0.358128 -0.0885362 1.92721 -0.50906
5 1 1 -0.52307 0.860832 1.52286 0.535166 0.617961 0.43689 1.10789 0.00592672 0.799931
6 1 1 0.330726 1.11482 2.22732 0.855724 -0.293346 0.376948 -4.0411 -4.33072 -4.40546
1 1 1 0.870869 0.287017 2.78691 0.320316 -0.911298 -0.0203864 -0.17755 2.57136 -0.649725
9 1 2 2.78477 1.19541 2.11316 0.00262901 -0.0872837 -0.653373 -1.43785 -0.0487633 0.161006
10 1 2 2.95695 2.28751 1.8527 0.0277338 -0.178773 -1.02039 -1.51076 -1.23449 0.423483
11 1 2 2.15519 3.05938 2.07876 0.0251932 -0.0920663 -1.32547 -0.640248 -2.07947 0.183159
8 1 2 1.81057 0.874548 2.60071 -0.0250748 0.0912716 -0.591222 -1.31562 0.330991 -0.623741
7 1 2 1.0094 1.64602 2.82949 -0.0277547 0.178909 -0.896126 5.60569 1.66195 3.87475
12 1 2 1.18284 2.73818 2.5706 -0.00272644 0.0879423 -1.26311 0.324063 -2.01507 -0.428813
