ITEM: TIMESTEP
433000
ITEM: NUMBER OF ATOMS
12
ITEM: BOX BOUNDS pp pp pp
-2.5000000000000000e+01 2.7000000000000000e+01
-2.5000000000000000e+01 2.7000000000000000e+01
-2.5000000000000000e+01 2.7000000000000000e+01
ITEM: ATOMS id type mol x y z vx vy vz fx fy fz
5 1 1 -0.375749 -0.903901 5.01416 -0.823824 0.327908 0.634457 0.872321 1.89578 -0.659385
4 1 1 -1.06773 -0.0207507 4.83931 0.0100899 1.02694 0.864901 1.62631 0.938836 -0.470934
6 1 1 0.708287 -0.850482 4.67987 -0.834562 -0.698527 0.435615 -0.311657 1.90049 -0.287551
2 1 1 0.410064 0.971632 3.99949 0.825561 -0.328988 0.697608 1.76421 2.55846 1.85866
1 1 1 1.10073 0.0868841 4.17243 -0.0102828 -1.02651 0.467233 -0.578525 1.62487 0.719242
10 1 2 1.51673 2.63375 3.49247 -0.260444 -0.178802 -0.247697 0.00959989 -1.72687 1.00862
9 1 2 2.64251 2.48507 3.51849 -0.198178 0.297536 -0.219806 -1.17137 -1.44076 0.943603
8 1 2 3.10909 1.81735 4.30982 0.0626159 0.476355 -0.222687 -1.67064 -0.700624 0.0662564
3 1 1 -0.675315 0.915569 4.33015 0.833017 0.699175 0.896405 1.47561 0.0528883 0.116161
12 1 2 1.32465 1.45042 5.05092 0.197381 -0.297312 -0.281253 -0.701336 -1.34666 -2.07957
7 1 2 2.4501 1.2999 5.0762 0.260447 0.178902 -0.253415 -1.1241 -0.245627 -0.870641
11 1 2 0.856631 2.11455 4.25693 -0.0618217 -0.47668 -0.278498 -0.190425 -3.51078 -0.34447
