ITEM: TIMESTEP
840000
ITEM: NUMBER OF ATOMS
12
ITEM: BOX BOUNDS pp pp pp
-2.5000000000000000e+01 2.7000000000000000e+01
-2.5000000000000000e+01 2.7000000000000000e+01
-2.5000000000000000e+01 2.7000000000000000e+01
ITEM: ATOMS id type mol x y z vx vy vz fx fy fz
4 1 1 -0.111636 -0.444298 0.549294 -0.396244 0.25138 -0.0386911 0.609352 1.43968 1.51607
5 1 1 -1.02466 -0.172155 1.16711 -0.155658 0.0276917 0.415384 1.59847 1.14283 0.842805
3 1 1 0.92941 -0.239884 0.954716 -0.24024 0.223494 -0.42522 -0.347472 1.64826 1.32829
8 1 2 1.66737 1.1812 1.64228 -0.00141675 -0.191385 0.165721 -1.40618 -1.90956 0.880649
7 1 2 2.43288 1.96966 1.35646 -0.0918352 -0.19033 -0.0735357 -0.989304 -0.962849 0.777459
2 1 1 1.05862 0.24079 1.97589 0.15518 -0.0274654 -0.357124 0.542983 3.80067 0.684934
6 1 1 -0.896393 0.304265 2.19 0.240796 -0.223776 0.482794 1.529 0.641646 -0.273889
1 1 1 0.144942 0.510234 2.59419 0.396165 -0.251324 0.0965396 2.56522 1.78877 -0.651386
9 1 2 1.21701 1.17895 2.68482 0.0903265 -0.00122868 0.205762 -1.95127 -2.98546 -2.16992
10 1 2 1.53363 1.9641 3.44209 0.0917881 0.190224 0.00665036 -0.0413177 -1.0364 -1.62883
11 1 2 2.30111 2.75147 3.15796 0.00160873 0.191811 -0.232541 -0.801796 -1.7778 -1.24546
12 1 2 2.74771 2.75567 2.11342 -0.0904713 0.000908556 -0.272678 -1.30768 -1.78979 -0.0607327
