# LAMMPS config file [2020-05-27 00:15:37]
# Real condensation system

2093 atoms
68 bonds
67 angles

1 atom types
1 bond types
1 angle types

-25.0 25.0 xlo xhi
-25.0 25.0 ylo yhi
-25.0 25.0 zlo zhi

Masses

1 1.0

Atoms

1 1 1 0.0 16.0 0.0 0.0
2 1 1 0.0 15.0 0.0 0.0
3 1 1 0.0 14.0 0.0 0.0
4 1 1 1.0 13.0 0.0 0.0
5 1 1 1.0 12.0 0.0 0.0
6 1 1 1.0 11.0 0.0 0.0
7 1 1 1.0 10.0 0.0 0.0
8 1 1 1.0 9.0 0.0 0.0
9 1 1 1.0 8.0 0.0 0.0
10 1 1 1.0 7.0 0.0 0.0
11 1 1 1.0 6.0 0.0 0.0
12 1 1 1.0 5.0 0.0 0.0
13 1 1 1.0 4.0 0.0 0.0
14 1 1 1.0 3.0 0.0 0.0
15 1 1 1.0 2.0 0.0 0.0
16 1 1 1.0 1.0 0.0 0.0
17 1 1 0.0 0.0 16.0 0.0
18 1 1 0.0 0.0 15.0 0.0
19 1 1 0.0 0.0 14.0 0.0
20 1 1 1.0 0.0 13.0 0.0
21 1 1 1.0 0.0 12.0 0.0
22 1 1 1.0 0.0 11.0 0.0
23 1 1 1.0 0.0 10.0 0.0
24 1 1 1.0 0.0 9.0 0.0
25 1 1 1.0 0.0 8.0 0.0
26 1 1 1.0 0.0 7.0 0.0
27 1 1 1.0 0.0 6.0 0.0
28 1 1 1.0 0.0 5.0 0.0
29 1 1 1.0 0.0 4.0 0.0
30 1 1 1.0 0.0 3.0 0.0
31 1 1 1.0 0.0 2.0 0.0
32 1 1 1.0 0.0 1.0 0.0
33 1 1 0.0 0.0 0.0 16.0
34 1 1 0.0 0.0 0.0 15.0
35 1 1 0.0 0.0 0.0 14.0
36 1 1 1.0 0.0 0.0 13.0
37 1 1 1.0 0.0 0.0 12.0
38 1 1 1.0 0.0 0.0 11.0
39 1 1 1.0 0.0 0.0 10.0
40 1 1 1.0 0.0 0.0 9.0
41 1 1 1.0 0.0 0.0 8.0
42 1 1 1.0 0.0 0.0 7.0
43 1 1 1.0 0.0 0.0 6.0
44 1 1 1.0 0.0 0.0 5.0
45 1 1 1.0 0.0 0.0 4.0
46 1 1 1.0 0.0 0.0 3.0
47 1 1 1.0 0.0 0.0 2.0
48 1 1 1.0 0.0 0.0 1.0
49 1 1 1.0 0.0 0.0 0.0
50 2 1 -3.0 12.5 0.0 0.0
51 2 1 -3.0 13.5 0.0 0.0
52 2 1 -3.0 14.5 0.0 0.0
53 2 1 -3.0 15.5 0.0 0.0
54 2 1 -3.0 16.5 0.0 0.0
55 2 1 -3.0 17.5 0.0 0.0
56 2 1 -3.0 18.5 0.0 0.0
57 2 1 -3.0 19.5 0.0 0.0
58 2 1 -3.0 20.5 0.0 0.0
59 2 1 -3.0 21.5 0.0 0.0
60 2 1 -3.0 22.5 0.0 0.0
61 2 1 -3.0 23.5 0.0 0.0
62 2 1 -3.0 24.5 0.0 0.0
63 2 1 -3.0 25.5 0.0 0.0
64 2 1 -3.0 26.5 0.0 0.0
65 2 1 -3.0 27.5 0.0 0.0
66 2 1 -3.0 28.5 0.0 0.0
67 2 1 -3.0 29.5 0.0 0.0
68 2 1 -3.0 30.5 0.0 0.0
69 2 1 -3.0 31.5 0.0 0.0
70 2 1 -3.0 32.5 0.0 0.0
71 3 1 -1.0 13.8736079173 41.1605171978 39.1166209414
72 3 1 -1.0 20.5381508334 51.984015879 9.22373778378
73 3 1 -1.0 11.54764409 30.4642133684 26.2849423674
74 3 1 -1.0 44.9107357174 57.2121757349 22.9188136393
75 3 1 -1.0 21.3545335438 29.5364688556 35.2749620193
76 3 1 -1.0 0.231390482674 32.0124026154 40.6864037905
77 3 1 -1.0 39.9226255552 39.8603718752 28.5873993304
78 3 1 -1.0 0.368730125202 37.6286324133 30.1000400408
79 3 1 -1.0 1.02326140012 35.607866683 4.88314945228
80 3 1 -1.0 2.73053553744 27.6249198689 23.2436641135
81 3 1 -1.0 43.0513331525 28.1460694768 49.8032019561
82 3 1 -1.0 4.92065518161 17.8408138414 0.694823565556
83 3 1 -1.0 39.8292369153 22.4643584094 42.7430407271
84 3 1 -1.0 30.0172209664 39.2284114606 4.78664662187
85 3 1 -1.0 33.8727178473 57.87755481 46.2747592105
86 3 1 -1.0 2.86092463126 44.3657068334 11.3933212204
87 3 1 -1.0 9.51852346824 29.8611398792 3.22572192491
88 3 1 -1.0 8.67021092563 13.9740240355 9.73644987498
89 3 1 -1.0 18.2936645608 13.5096627832 30.4931093633
90 3 1 -1.0 42.5286841677 35.2218332737 22.3250126374
91 3 1 -1.0 38.7652711274 49.4201533722 18.4214917694
92 3 1 -1.0 46.4799848661 32.2813639382 46.0725806201
93 3 1 -1.0 30.7150023782 24.6667453822 12.2036538146
94 3 1 -1.0 16.5586585443 29.1075399722 0.388573029417
95 3 1 -1.0 1.74129243376 20.5985503929 6.22064958271
96 3 1 -1.0 6.11466957987 58.2250744066 47.8968700998
97 3 1 -1.0 45.9445055207 41.8810201518 31.2003750035
98 3 1 -1.0 25.1295849512 27.323091523 29.1346683886
99 3 1 -1.0 41.9761206294 58.396733985 44.2588878403
100 3 1 -1.0 21.5958028309 22.1857637717 32.7457627562
101 3 1 -1.0 27.2553946286 14.3071568555 20.4944438569
102 3 1 -1.0 30.8217667109 22.5517711591 19.8853775015
103 3 1 -1.0 28.7755551683 20.7246541272 4.57130649576
104 3 1 -1.0 30.204144178 47.5382959511 8.59227048083
105 3 1 -1.0 34.1361718182 61.7376229128 43.6141114951
106 3 1 -1.0 5.44730045993 52.0435429887 15.2260625019
107 3 1 -1.0 0.714939349493 42.2924803712 29.790439793
108 3 1 -1.0 6.6364084194 42.9017686683 41.9702552342
109 3 1 -1.0 9.07905682626 18.6055594173 35.344436511
110 3 1 -1.0 45.44700243 49.9464084993 44.8878977203
111 3 1 -1.0 33.8870594359 48.0674739351 24.802772876
112 3 1 -1.0 16.4457359598 19.1492837151 4.11697808548
113 3 1 -1.0 47.9831787763 45.8839321048 3.41653379093
114 3 1 -1.0 9.26640060978 28.2430908695 9.4592394019
115 3 1 -1.0 21.7802277728 31.9340404011 42.4056706274
116 3 1 -1.0 0.238846797022 20.753129465 18.7472589438
117 3 1 -1.0 10.5706929129 26.4994873054 30.0992655523
118 3 1 -1.0 18.2518265271 13.8696811962 5.14155268288
119 3 1 -1.0 8.69620643419 31.2331430596 5.91351828502
120 3 1 -1.0 49.1470816624 20.5425636593 1.65236863546
121 3 1 -1.0 6.77758949646 49.0583726695 14.7880698958
122 3 1 -1.0 22.3054138837 46.0539409933 3.66168365149
123 3 1 -1.0 33.7078044518 24.0167847658 19.309760243
124 3 1 -1.0 19.5699771134 47.5661997202 35.5920352107
125 3 1 -1.0 42.5841312191 41.0451911233 21.5062089237
126 3 1 -1.0 45.3631006299 28.2116749681 22.5776028893
127 3 1 -1.0 26.9547298142 60.851225238 47.1090924903
128 3 1 -1.0 17.0064297956 36.8672540567 48.7581682532
129 3 1 -1.0 11.6553941553 54.0613787816 48.962329119
130 3 1 -1.0 9.14279665044 47.3177985633 11.9178990852
131 3 1 -1.0 28.638613634 39.9872498931 15.1147161492
132 3 1 -1.0 29.7168790093 51.4577051425 38.8023042932
133 3 1 -1.0 0.383985276778 49.9540082312 19.4789388238
134 3 1 -1.0 39.7487944728 62.3504439563 42.6374402955
135 3 1 -1.0 43.0200269281 56.2849478641 22.7129140586
136 3 1 -1.0 26.3294754127 45.1606382241 29.1749653261
137 3 1 -1.0 34.2474005136 55.9596291079 20.7986333031
138 3 1 -1.0 43.8513996937 43.2173484412 39.8760116215
139 3 1 -1.0 0.271789998086 26.5155656701 6.6569438234
140 3 1 -1.0 42.5789337967 15.6212239351 26.1536792543
141 3 1 -1.0 22.2483026325 33.256838935 40.7954069076
142 3 1 -1.0 0.7288135851 49.5513477323 16.7959995027
143 3 1 -1.0 16.8807731814 41.6288735973 30.2186837711
144 3 1 -1.0 47.549184603 52.9789919232 24.6750834578
145 3 1 -1.0 1.09271098189 19.0359847796 38.6752906891
146 3 1 -1.0 36.8485284162 39.1165088455 30.3201848647
147 3 1 -1.0 44.793134912 62.4449145016 18.4951153328
148 3 1 -1.0 6.15789634462 48.2300466902 11.9619471554
149 3 1 -1.0 45.5215332244 19.0312744789 3.18792576659
150 3 1 -1.0 13.1227931757 14.3935089376 22.6982705826
151 3 1 -1.0 5.32550954352 33.8079451169 1.46128986
152 3 1 -1.0 2.29833768058 37.4084547292 33.8651956128
153 3 1 -1.0 42.3651294342 15.1977987858 33.7502607711
154 3 1 -1.0 42.6113858782 13.2181490868 39.2953984505
155 3 1 -1.0 37.7131789434 17.6614057814 15.4293059832
156 3 1 -1.0 39.4861403903 41.3131897744 30.1954274266
157 3 1 -1.0 4.06939613973 30.7171550792 30.2802998451
158 3 1 -1.0 18.7259344903 20.2099467035 31.358451373
159 3 1 -1.0 13.0629726116 57.1081794445 42.806558025
160 3 1 -1.0 23.8541455313 60.4723485763 46.3945806668
161 3 1 -1.0 31.093656742 18.5033185584 3.99765328739
162 3 1 -1.0 37.8839156149 43.954942364 30.1659273724
163 3 1 -1.0 7.48130831199 52.8697675077 33.3750483135
164 3 1 -1.0 40.8717116553 26.0077709641 22.4752283887
165 3 1 -1.0 37.4007343748 47.2462650549 6.90655343173
166 3 1 -1.0 32.6940210159 45.3408278664 38.4258430077
167 3 1 -1.0 49.4629558737 34.3109117107 30.018781847
168 3 1 -1.0 6.69877369363 28.0517232719 18.9128790133
169 3 1 -1.0 11.0225143771 14.7921713307 34.3769097005
170 3 1 -1.0 16.075025074 45.4328092239 37.041004052
171 3 1 -1.0 36.4747589201 42.5785916243 48.6647888794
172 3 1 -1.0 10.3170794141 27.649149542 32.2371369222
173 3 1 -1.0 22.4760739425 13.4468267414 16.2633286027
174 3 1 -1.0 49.0842934999 58.6396104329 22.2078770795
175 3 1 -1.0 17.3661740158 36.7106002978 37.9152546817
176 3 1 -1.0 41.6617403472 49.2659536326 48.6678004202
177 3 1 -1.0 16.7781910455 42.3537852402 29.615237763
178 3 1 -1.0 4.7592503439 24.8838918322 9.81280333212
179 3 1 -1.0 23.1714053813 54.9581662708 28.8511538435
180 3 1 -1.0 29.2820060372 41.4574023207 9.99480283475
181 3 1 -1.0 10.3964182483 23.0520701824 31.0669512165
182 3 1 -1.0 45.3330002835 39.5063852681 12.9662202393
183 3 1 -1.0 4.60130666692 47.9428052871 20.0980200106
184 3 1 -1.0 45.7703221392 16.8465017994 11.6752000728
185 3 1 -1.0 5.30157113302 46.7571474653 32.7609005847
186 3 1 -1.0 45.6788625849 45.0491492006 44.457834366
187 3 1 -1.0 8.57493112908 32.4296481594 8.73075743194
188 3 1 -1.0 26.5370862001 17.5680501816 16.0161119705
189 3 1 -1.0 4.52676115937 47.2228396876 12.168518097
190 3 1 -1.0 19.4028238257 22.0485778801 24.8863119421
191 3 1 -1.0 23.2908346883 29.560243782 35.5217792793
192 3 1 -1.0 9.747821359 43.7927763293 39.3364340262
193 3 1 -1.0 35.1884707878 35.9133940175 41.626512308
194 3 1 -1.0 18.1941255888 60.9773837687 38.1739624113
195 3 1 -1.0 38.7907428563 34.2812410319 7.52661360584
196 3 1 -1.0 34.4349111199 58.3834132789 49.799368257
197 3 1 -1.0 25.8163570814 14.5084597912 4.18123647987
198 3 1 -1.0 38.9879343784 23.832034951 15.7530764129
199 3 1 -1.0 2.18882676354 13.7422441529 20.6577528977
200 3 1 -1.0 17.7746977746 61.0870322417 39.3484670175
201 3 1 -1.0 7.03063982034 17.9190565399 45.6583439918
202 3 1 -1.0 24.5493583258 48.5359109129 48.379231063
203 3 1 -1.0 2.26768103499 56.8249662311 18.3121647608
204 3 1 -1.0 25.1203250877 13.1989841492 36.21808104
205 3 1 -1.0 36.429845391 26.8404959174 0.415479938925
206 3 1 -1.0 40.167073825 12.6968842118 28.9353322258
207 3 1 -1.0 31.4594784787 16.1878360032 11.8841320595
208 3 1 -1.0 35.5134114432 31.9762492825 13.1877153298
209 3 1 -1.0 20.4783863726 20.8404290513 9.85501892503
210 3 1 -1.0 46.3030391478 62.3900153137 38.9874254008
211 3 1 -1.0 41.0072036296 22.1283316027 35.2735616062
212 3 1 -1.0 7.50291631468 53.7801545154 15.4358776956
213 3 1 -1.0 46.793295001 31.7551388267 38.1176532955
214 3 1 -1.0 40.1552848297 42.2805332624 7.31728625017
215 3 1 -1.0 19.7775023533 26.0109312408 6.18166809397
216 3 1 -1.0 26.8844227403 52.9827596494 27.9753037503
217 3 1 -1.0 7.95813054204 36.3536813983 35.1899369231
218 3 1 -1.0 36.7230813915 29.1753889609 23.5684647746
219 3 1 -1.0 42.2853270072 53.0776445453 4.29040745945
220 3 1 -1.0 27.841372059 13.1774112912 36.7893241195
221 3 1 -1.0 4.30666022588 32.7414269695 28.9808023962
222 3 1 -1.0 16.6994280842 31.6583893625 44.1832170568
223 3 1 -1.0 39.3430358694 57.2974820692 7.56073165111
224 3 1 -1.0 40.469693231 16.2261665696 0.591241713522
225 3 1 -1.0 12.3618421323 33.4327699742 26.3287082312
226 3 1 -1.0 17.8894637441 26.7290601702 36.628980191
227 3 1 -1.0 17.6532750827 44.9118071398 15.3872139629
228 3 1 -1.0 32.288571581 19.9888784417 44.9041865733
229 3 1 -1.0 10.1123400006 37.2058430808 11.486982334
230 3 1 -1.0 25.2879256614 40.8044971601 37.8607407705
231 3 1 -1.0 22.6205026671 34.7141418407 42.9542569074
232 3 1 -1.0 10.3218334514 31.5081347329 7.20452161627
233 3 1 -1.0 24.5170354771 35.1910768202 15.1100589456
234 3 1 -1.0 17.3979605754 58.6087908052 10.7913049442
235 3 1 -1.0 17.7124112116 19.2440310961 0.853792659907
236 3 1 -1.0 3.57177449338 61.3975103221 44.4547845932
237 3 1 -1.0 18.4300268969 31.4852006943 30.162345465
238 3 1 -1.0 9.97135500444 17.7628532888 45.3179655777
239 3 1 -1.0 0.583646762964 27.9534576872 1.32068556803
240 3 1 -1.0 28.1730585862 54.9539308042 19.6285657502
241 3 1 -1.0 1.80966597457 45.6496516101 18.6299938162
242 3 1 -1.0 23.809772569 44.7209667498 4.52050216425
243 3 1 -1.0 16.8811774674 40.0855215582 4.0113566728
244 3 1 -1.0 48.8845467713 28.4338414624 22.2155550019
245 3 1 -1.0 39.9704166422 47.8074443595 20.8425481116
246 3 1 -1.0 32.356196889 61.7092479075 36.2518660525
247 3 1 -1.0 45.201472164 32.8710350604 23.05922787
248 3 1 -1.0 45.1098983994 46.1659705915 6.86096868563
249 3 1 -1.0 43.3360517079 34.6861509802 35.9434062167
250 3 1 -1.0 45.7129708186 43.9035474341 8.02549654077
251 3 1 -1.0 38.4477055407 33.5700557114 49.9854023724
252 3 1 -1.0 6.26933888436 32.399017712 31.3560979588
253 3 1 -1.0 29.2571029635 32.2237029422 18.4461253542
254 3 1 -1.0 3.09106132915 59.6971593486 39.3889224916
255 3 1 -1.0 7.34966534242 32.7226936913 49.0121389988
256 3 1 -1.0 24.9577021255 13.0077840014 32.2753002172
257 3 1 -1.0 8.4144439842 19.8797459668 19.6117494442
258 3 1 -1.0 11.7742334836 33.8949848766 32.2674353805
259 3 1 -1.0 7.49607334542 53.74503231 44.6125368477
260 3 1 -1.0 33.9851142911 55.6370503799 41.4206528145
261 3 1 -1.0 24.7759712208 48.6245838737 40.3053813385
262 3 1 -1.0 49.4612477556 14.5460078734 44.6044946889
263 3 1 -1.0 32.3569666313 61.7514878326 21.1854869837
264 3 1 -1.0 35.6357836621 48.83723808 14.5241451831
265 3 1 -1.0 8.73557105657 38.0324317566 3.59908182518
266 3 1 -1.0 30.3740532472 32.4730947319 14.5811812779
267 3 1 -1.0 6.45113430047 55.1537661602 40.595474186
268 3 1 -1.0 44.2042042387 26.8822011677 22.5991453714
269 3 1 -1.0 16.0835616346 22.9178017515 47.6594450253
270 3 1 -1.0 37.5679147933 40.8547428507 29.6001713513
271 3 1 -1.0 30.4638834933 30.6406704795 49.7870574117
272 3 1 -1.0 46.7943360626 34.1486754185 0.468029338739
273 3 1 -1.0 35.9344863288 37.1235417028 38.74388691
274 3 1 -1.0 41.0362511726 46.5869261224 37.2560150872
275 3 1 -1.0 39.6212908003 45.7706781378 39.9787837087
276 3 1 -1.0 39.3857067913 51.7687169118 3.81258061661
277 3 1 -1.0 35.2305392533 26.1349784742 42.5024912619
278 3 1 -1.0 41.7395033783 23.2652794926 7.77150500388
279 3 1 -1.0 29.2192074968 52.2574122178 10.0349134619
280 3 1 -1.0 28.5307532554 60.4006986049 14.5689797246
281 3 1 -1.0 2.15207693136 61.7635315675 48.8426754424
282 3 1 -1.0 44.4247453118 27.1106632076 46.8667944429
283 3 1 -1.0 29.7533965811 23.1412422753 16.2306725011
284 3 1 -1.0 45.3752773602 44.05390171 11.2537214005
285 3 1 -1.0 5.90103512382 42.8343637227 30.440389208
286 3 1 -1.0 45.1403824881 41.6209456333 32.4141795289
287 3 1 -1.0 12.0383792177 30.5951614913 42.259538489
288 3 1 -1.0 1.19606003524 16.436106255 25.7870919207
289 3 1 -1.0 0.70186879762 51.2687898074 24.1171462214
290 3 1 -1.0 0.791754151932 28.7054702976 48.0556743427
291 3 1 -1.0 31.9289353043 60.0264166174 31.2030561101
292 3 1 -1.0 19.0574519852 16.3639946493 39.7708714466
293 3 1 -1.0 11.1755358996 14.4562370618 47.3783844641
294 3 1 -1.0 24.5867633574 39.7367642147 31.6408030453
295 3 1 -1.0 39.4392485107 21.2976781202 36.8139179613
296 3 1 -1.0 34.5208146966 61.6793684803 12.7221505465
297 3 1 -1.0 37.3717427049 21.2390480159 34.2503929158
298 3 1 -1.0 2.9677529421 32.3328472176 20.0426370333
299 3 1 -1.0 34.9199667576 33.3069505933 8.18767590654
300 3 1 -1.0 45.0797831763 37.2108389951 37.9122845968
301 3 1 -1.0 20.7457371734 20.2387763159 47.1527172073
302 3 1 -1.0 37.6524733169 46.5820767446 27.3938274389
303 3 1 -1.0 48.7261857591 54.9818176591 8.33054603485
304 3 1 -1.0 9.1044874675 26.2652835868 49.8064464447
305 3 1 -1.0 15.7487352668 33.5375306286 15.9859913746
306 3 1 -1.0 49.2913893899 21.6422416418 19.9133851732
307 3 1 -1.0 46.3018550964 24.3377126834 47.6142223702
308 3 1 -1.0 8.32007070178 39.0343306201 15.8627868706
309 3 1 -1.0 0.937674206831 33.4488097293 8.39670303669
310 3 1 -1.0 29.1002156956 28.9508518485 8.0758106131
311 3 1 -1.0 6.50771066998 57.5159763507 0.489675859313
312 3 1 -1.0 44.3330660396 36.0065212533 40.0953542219
313 3 1 -1.0 40.4516854238 18.2687504465 44.3441387987
314 3 1 -1.0 22.9509368236 19.1536627308 42.9962162474
315 3 1 -1.0 40.8696840489 53.7445904301 39.3235936602
316 3 1 -1.0 45.9708438189 38.2699153964 1.85234928003
317 3 1 -1.0 9.82417162621 31.1033357938 47.4704850256
318 3 1 -1.0 4.62372391336 33.4766567629 7.80363204867
319 3 1 -1.0 39.307827059 60.3173263852 24.3903268814
320 3 1 -1.0 25.7911169712 15.3107289322 14.5965812376
321 3 1 -1.0 3.65043089638 21.1144962423 16.2551196179
322 3 1 -1.0 26.0789010173 36.1868955088 44.5045493174
323 3 1 -1.0 26.1001432401 59.0162276894 13.182306151
324 3 1 -1.0 24.1966216079 22.3477053196 26.9430016993
325 3 1 -1.0 33.158034921 49.5131327504 48.0454774326
326 3 1 -1.0 40.6811193402 36.4955889217 4.75968438821
327 3 1 -1.0 41.4705145875 58.6501980062 11.9316919755
328 3 1 -1.0 10.9357076266 34.4486940805 3.07885260844
329 3 1 -1.0 48.1706774331 61.5143542229 22.9691182879
330 3 1 -1.0 5.35680661946 19.2263761172 9.95352094116
331 3 1 -1.0 5.57234296393 31.2971010315 14.3024189735
332 3 1 -1.0 44.51181768 56.8856836736 33.319254767
333 3 1 -1.0 40.3799370761 52.8114511156 31.8211444729
334 3 1 -1.0 1.74226949638 33.8337471917 9.94481896321
335 3 1 -1.0 43.7343737014 27.7632591737 12.0648707393
336 3 1 -1.0 43.3145385841 30.2155449208 23.0704931532
337 3 1 -1.0 20.4283492735 42.0568450297 10.6868797208
338 3 1 -1.0 45.8507899957 33.330713234 5.73129562608
339 3 1 -1.0 29.027287091 33.7527400207 7.58385792656
340 3 1 -1.0 24.6883002192 60.4548350119 16.1740972074
341 3 1 -1.0 43.7993857966 31.2976685354 49.0031060085
342 3 1 -1.0 24.3967147785 55.8695196322 8.09475644606
343 3 1 -1.0 31.628063691 18.7058832012 9.18546342328
344 3 1 -1.0 41.1689799049 58.9613531052 46.2284353723
345 3 1 -1.0 15.1855895819 38.9106249153 23.7047372134
346 3 1 -1.0 32.7190947953 43.5215052268 8.47052756262
347 3 1 -1.0 23.7314350712 49.6798608116 17.7415425966
348 3 1 -1.0 18.1813020731 18.1580709779 3.44905009588
349 3 1 -1.0 46.0070733854 43.0753427492 6.68654732156
350 3 1 -1.0 11.2929711906 23.0155146269 5.53276999679
351 3 1 -1.0 3.02506054992 60.6322297005 20.9361758884
352 3 1 -1.0 7.56818014749 37.7163802764 26.1253859606
353 3 1 -1.0 38.5219425235 59.2504897775 12.2773262086
354 3 1 -1.0 8.13856436016 33.0473025691 45.8241791562
355 3 1 -1.0 4.08042540508 35.0898821905 15.0415031032
356 3 1 -1.0 13.3429068767 58.8381467704 31.1020185974
357 3 1 -1.0 9.16723798071 16.5400941608 9.2123719608
358 3 1 -1.0 3.39072656038 36.9191011971 19.7816090789
359 3 1 -1.0 28.7230789489 48.5360486633 12.3687550582
360 3 1 -1.0 0.117820629031 31.5120795637 27.4870861159
361 3 1 -1.0 31.8838727382 36.9918192266 47.4298705441
362 3 1 -1.0 31.4672269722 15.2125347161 11.8035602673
363 3 1 -1.0 0.945068524895 60.2349484623 1.45624051485
364 3 1 -1.0 20.6004591019 16.9032135528 28.1978511569
365 3 1 -1.0 9.44423991505 28.8925026324 32.4060249389
366 3 1 -1.0 46.7708883044 20.8257588043 40.1485901654
367 3 1 -1.0 10.0353358644 39.575684169 23.727920636
368 3 1 -1.0 17.3403182974 28.3552258845 45.2751738638
369 3 1 -1.0 19.9593755808 61.7019171985 37.4602933472
370 3 1 -1.0 29.7368847642 44.611532388 10.0214157371
371 3 1 -1.0 28.4894445941 56.2963301055 25.7976826529
372 3 1 -1.0 17.1037355509 39.1701720606 28.1016316095
373 3 1 -1.0 20.879819343 25.435235214 1.56902952803
374 3 1 -1.0 19.5791339455 22.1351173128 45.6859856864
375 3 1 -1.0 45.9122513468 62.2634832021 43.3594735139
376 3 1 -1.0 42.037528915 15.6290767982 34.9546219069
377 3 1 -1.0 2.12504335422 50.9933400602 46.772331525
378 3 1 -1.0 41.1212427323 58.5679314795 23.766352037
379 3 1 -1.0 22.0919260341 14.6943377058 16.8156135224
380 3 1 -1.0 19.324432202 15.1045611844 37.5148191162
381 3 1 -1.0 18.9493648602 14.3156309158 3.99664757895
382 3 1 -1.0 29.7561695465 61.6408997974 17.1216842013
383 3 1 -1.0 18.7303097523 45.8928924853 47.3442323114
384 3 1 -1.0 36.7917659277 49.4814988198 37.6501333578
385 3 1 -1.0 0.75161926719 40.4245935222 45.3244252781
386 3 1 -1.0 3.54294980738 12.8334304672 18.9529994652
387 3 1 -1.0 25.3406091135 25.8331104092 1.61753191289
388 3 1 -1.0 24.5536693267 44.243645146 34.0610059675
389 3 1 -1.0 3.83571087562 40.9461075516 21.7309314393
390 3 1 -1.0 43.773163653 35.2029155852 44.5083034561
391 3 1 -1.0 16.3799461949 51.0735509279 27.9391647529
392 3 1 -1.0 2.06281093763 60.0566378931 14.8627159429
393 3 1 -1.0 11.4361927294 53.0138962933 1.36557078078
394 3 1 -1.0 0.278822194544 46.4842954805 48.7467540401
395 3 1 -1.0 41.5115145601 43.4705096726 42.6396317053
396 3 1 -1.0 33.1090928359 41.9227776881 26.2647724984
397 3 1 -1.0 15.6094045053 51.6267190526 12.8161780377
398 3 1 -1.0 41.2200212384 27.0971515222 23.7556366295
399 3 1 -1.0 35.176383874 27.9282223482 43.9737244077
400 3 1 -1.0 20.3724307642 13.6806898578 35.625769716
401 3 1 -1.0 27.0962607681 43.1709602092 20.0799164735
402 3 1 -1.0 8.50198232413 59.7236538829 22.2381399533
403 3 1 -1.0 17.9819333488 13.270052793 28.3544091339
404 3 1 -1.0 45.6374269723 24.3782640189 30.2473466969
405 3 1 -1.0 10.9791285269 39.2175000533 26.4052958264
406 3 1 -1.0 42.5500994251 21.4392783002 31.3436581043
407 3 1 -1.0 47.2363326375 54.8385465814 17.6994878693
408 3 1 -1.0 43.2413650397 54.1321753178 26.0702535091
409 3 1 -1.0 7.15296189334 20.1312766703 16.0426734661
410 3 1 -1.0 23.2354180177 40.5627105483 22.4290110557
411 3 1 -1.0 36.0321486566 34.5647523467 43.9845004981
412 3 1 -1.0 0.374869289088 52.9016161378 6.70551246495
413 3 1 -1.0 3.40904509547 22.5475302915 23.5848069843
414 3 1 -1.0 6.13975467994 48.2299294361 19.0718655418
415 3 1 -1.0 22.5938869373 31.6457066391 23.3165702172
416 3 1 -1.0 15.4593226198 22.2661609561 37.7183331566
417 3 1 -1.0 1.34969249554 32.8828257573 7.9098209975
418 3 1 -1.0 28.9341940999 21.3335334302 11.4252256693
419 3 1 -1.0 24.2573815193 13.3094627924 48.6582384438
420 3 1 -1.0 19.0668291041 17.0916954895 8.05604591251
421 3 1 -1.0 13.6301979798 41.7759605994 2.97251572938
422 3 1 -1.0 46.840631397 52.0757247949 0.127354711179
423 3 1 -1.0 5.17012673967 34.8890027237 22.1776347566
424 3 1 -1.0 39.6229809593 43.1569250025 48.8995363888
425 3 1 -1.0 12.6253763517 59.6981643766 5.00551026122
426 3 1 -1.0 23.1645944547 31.7319937796 20.0773924407
427 3 1 -1.0 34.4776294803 45.5690311583 14.1620811395
428 3 1 -1.0 40.9067057589 52.4444118575 30.4970557835
429 3 1 -1.0 32.9355101651 59.1540587737 37.9596819434
430 3 1 -1.0 15.0892582156 21.7399323222 5.33975006439
431 3 1 -1.0 23.1899179456 49.4041487076 29.1941975483
432 3 1 -1.0 16.9100652628 12.5494180779 29.9462414917
433 3 1 -1.0 43.1969343923 32.3693464209 26.0974391325
434 3 1 -1.0 46.7843122605 58.6973824061 21.8818413233
435 3 1 -1.0 9.96315609138 59.8404638005 6.12369521639
436 3 1 -1.0 4.73224894952 50.3085594362 32.1598217483
437 3 1 -1.0 18.4238107722 54.4017851153 20.3205517066
438 3 1 -1.0 43.3611997731 60.4939829347 30.8973804778
439 3 1 -1.0 17.9063089596 54.4811925217 25.4801198148
440 3 1 -1.0 4.91004715606 35.2365574719 48.6021268873
441 3 1 -1.0 28.6311306239 57.8524967725 12.0249606339
442 3 1 -1.0 6.14648466039 61.6421184093 9.9657294371
443 3 1 -1.0 37.7775944525 41.1438464834 30.1619013837
444 3 1 -1.0 26.1675768695 54.1923334018 18.7977173184
445 3 1 -1.0 42.7231960598 32.1262871736 29.0606111798
446 3 1 -1.0 49.2331652631 22.262077081 7.58437606471
447 3 1 -1.0 39.68272989 52.4932959131 32.7338777405
448 3 1 -1.0 13.3022870922 32.3307140953 36.5526395226
449 3 1 -1.0 18.598046529 41.3974790578 4.01435376801
450 3 1 -1.0 48.7731359627 36.1918942262 24.8945191338
451 3 1 -1.0 15.5293583035 53.5278842289 25.46770375
452 3 1 -1.0 37.4878425284 39.1505470692 36.1371495059
453 3 1 -1.0 18.5484633403 14.36322588 4.09448292072
454 3 1 -1.0 22.9386989283 48.6800671841 47.543842873
455 3 1 -1.0 23.441599843 25.7429481537 13.8999122694
456 3 1 -1.0 18.1687804056 23.8649083995 49.6768235293
457 3 1 -1.0 13.6510048324 39.9827356765 18.2201656623
458 3 1 -1.0 14.2202758927 13.1053918692 22.0922430403
459 3 1 -1.0 4.53736955007 49.9120464873 26.4388457966
460 3 1 -1.0 15.0898729003 58.227921912 47.4583955693
461 3 1 -1.0 20.1371732431 34.3305475356 24.381627859
462 3 1 -1.0 12.8293002442 29.8005382798 2.5847326121
463 3 1 -1.0 15.53896377 41.1417276626 19.3264228002
464 3 1 -1.0 35.7224772237 38.1457213939 27.1560939692
465 3 1 -1.0 29.7398124216 26.9657984939 15.2308170205
466 3 1 -1.0 13.1123006024 43.8887188068 11.0563999422
467 3 1 -1.0 46.2730127394 40.731483705 10.8031818086
468 3 1 -1.0 13.5005190447 35.7927133457 42.4990442719
469 3 1 -1.0 26.805198244 55.3056942139 21.4896044648
470 3 1 -1.0 13.8452473785 33.4834272761 14.9930407456
471 3 1 -1.0 47.6209923831 38.690193164 15.801055419
472 3 1 -1.0 25.414260391 58.6241365233 7.77489231971
473 3 1 -1.0 37.0523483212 40.7149254054 33.6412754385
474 3 1 -1.0 44.970418946 47.9684408673 32.4539205639
475 3 1 -1.0 16.4389125462 54.8087502012 34.7240152484
476 3 1 -1.0 18.2764265182 24.5217298952 17.8948446335
477 3 1 -1.0 12.7931716523 21.656199137 27.1008404872
478 3 1 -1.0 32.4805457295 45.0623869857 14.298962121
479 3 1 -1.0 21.6827832702 17.6380042026 0.814337985504
480 3 1 -1.0 19.8668099538 39.0995047779 18.8870197398
481 3 1 -1.0 31.3520544248 34.4959363956 9.24086421089
482 3 1 -1.0 35.5317019775 27.2344572824 44.0182012353
483 3 1 -1.0 46.9835296262 29.8041766476 14.8220623733
484 3 1 -1.0 35.2375502055 42.8571972445 5.97618246844
485 3 1 -1.0 14.3646948628 50.2807486609 17.7360650699
486 3 1 -1.0 49.4997446079 50.8598988484 3.28309007126
487 3 1 -1.0 35.8147790373 17.2316509827 48.9445463448
488 3 1 -1.0 0.997560922146 23.904706208 43.3931991446
489 3 1 -1.0 28.3542509244 29.5196610126 33.1999003318
490 3 1 -1.0 13.3358486682 54.2170027883 40.9216907515
491 3 1 -1.0 2.63795169354 18.4942272388 20.6263017111
492 3 1 -1.0 28.1668192494 49.3098620509 13.1856158517
493 3 1 -1.0 3.06725526502 53.4027567135 30.2821792682
494 3 1 -1.0 13.218570085 40.8327302366 24.9592686548
495 3 1 -1.0 34.1298194124 25.8204707092 1.13638983436
496 3 1 -1.0 11.8573302133 47.4868143553 10.4581229775
497 3 1 -1.0 45.0735277801 60.6189156155 19.442282743
498 3 1 -1.0 37.1876021904 61.7530741437 21.2020636054
499 3 1 -1.0 8.65460372623 40.1539467664 22.4354764386
500 3 1 -1.0 29.3713262058 29.2573800045 26.0406572953
501 3 1 -1.0 49.9962476417 51.7315278333 42.0190575796
502 3 1 -1.0 46.9427694687 50.9431545666 17.0008445877
503 3 1 -1.0 44.8651802749 49.3135653057 32.3065774689
504 3 1 -1.0 18.9285301916 20.1646274046 26.5446159878
505 3 1 -1.0 0.242115386383 19.319988572 16.1263482608
506 3 1 -1.0 24.4064187058 29.9090782471 13.139279138
507 3 1 -1.0 30.3043855868 41.9197865883 3.22776856204
508 3 1 -1.0 32.0441094304 18.9078034713 19.2917712633
509 3 1 -1.0 18.0302909502 14.4692073029 28.0570995339
510 3 1 -1.0 37.13041306 60.5298147675 29.2635069962
511 3 1 -1.0 14.3717739357 19.179848683 4.41241985249
512 3 1 -1.0 22.0644282119 13.9350449021 9.93834019317
513 3 1 -1.0 46.7291618182 34.7536393787 14.0470553643
514 3 1 -1.0 37.5008025286 28.8056371659 5.70223485302
515 3 1 -1.0 7.36066894744 19.3233971455 10.8175163217
516 3 1 -1.0 40.3959140069 38.411816601 39.6001366462
517 3 1 -1.0 22.6237016333 41.7631985864 10.4842125989
518 3 1 -1.0 19.0444535669 52.6430079637 26.2098151706
519 3 1 -1.0 41.9649666133 59.6089785743 40.6995954909
520 3 1 -1.0 23.7505250749 43.5907671163 14.1093690525
521 3 1 -1.0 1.86408399013 48.2839003191 25.0421263901
522 3 1 -1.0 17.5998889645 26.0964947378 5.59516122158
523 3 1 -1.0 3.43112094924 50.3602920984 15.8206766769
524 3 1 -1.0 31.5972508939 27.5658294713 3.46164472219
525 3 1 -1.0 28.8730349715 47.4836112237 3.23359176809
526 3 1 -1.0 3.88456872549 15.5374275154 19.5755155549
527 3 1 -1.0 25.1297041287 56.6575706909 2.70584080603
528 3 1 -1.0 18.9707415056 20.6119959874 48.9721494083
529 3 1 -1.0 49.9903192215 60.3431056513 5.39904703839
530 3 1 -1.0 47.0129598173 60.3742514174 13.4213609427
531 3 1 -1.0 8.96813126957 59.9911297697 40.3270270937
532 3 1 -1.0 18.7100010247 24.2867630432 11.0400177221
533 3 1 -1.0 48.3555089515 38.5058787161 14.2209876013
534 3 1 -1.0 3.62184077709 48.4669928619 19.0170206812
535 3 1 -1.0 6.32570200015 21.9994102963 12.8501869822
536 3 1 -1.0 1.80308186394 19.5203132428 17.5670319662
537 3 1 -1.0 20.0772675072 23.3842261486 42.2988889268
538 3 1 -1.0 31.7749428333 62.0159124673 11.9156316576
539 3 1 -1.0 19.2617665815 61.7465647689 10.8037893179
540 3 1 -1.0 36.6297031416 48.4190020205 13.2507740767
541 3 1 -1.0 15.1836687002 36.5803804771 24.2187444646
542 3 1 -1.0 0.15450484135 20.4898359058 31.9792312356
543 3 1 -1.0 3.521428423 26.8856273471 3.97788704361
544 3 1 -1.0 37.468196147 50.4334582834 13.270793669
545 3 1 -1.0 39.1867816063 50.3027512453 1.52630058152
546 3 1 -1.0 21.9807904772 23.378160577 47.8156613552
547 3 1 -1.0 10.7215276485 32.1699571652 13.5809424764
548 3 1 -1.0 11.0310629963 16.8547217544 26.7211399202
549 3 1 -1.0 13.7055902722 31.5856454217 48.8709656968
550 3 1 -1.0 23.4722430458 60.5384731062 12.6882381394
551 3 1 -1.0 35.9143407899 23.3290971541 20.5038196811
552 3 1 -1.0 10.3768634977 44.6275675402 38.5995322879
553 3 1 -1.0 35.1762543617 19.951349162 23.1572381146
554 3 1 -1.0 22.2160193737 60.4185950577 25.0044872475
555 3 1 -1.0 3.73989862031 50.5934978161 11.9985468507
556 3 1 -1.0 32.7969056654 14.5787970222 25.577443549
557 3 1 -1.0 33.3998022285 31.0141905895 22.8245255314
558 3 1 -1.0 41.158627196 59.5672354882 31.649100656
559 3 1 -1.0 18.5623549726 22.5630488943 0.208749545752
560 3 1 -1.0 38.0364636737 19.5376105844 13.4195878587
561 3 1 -1.0 7.81547021941 13.7216688655 3.68570141719
562 3 1 -1.0 49.6101223659 15.4390448591 44.2753862496
563 3 1 -1.0 2.91598072059 52.2678638879 35.0227468886
564 3 1 -1.0 31.0018706769 49.7092162202 38.7625684861
565 3 1 -1.0 0.931816905976 49.7643941873 31.4292428348
566 3 1 -1.0 11.0824617187 45.1362492331 10.6849151875
567 3 1 -1.0 41.4289057881 43.1427464741 49.4718749013
568 3 1 -1.0 28.2158545684 53.1850101201 11.0169435356
569 3 1 -1.0 10.3666432439 35.0146206962 39.9675498235
570 3 1 -1.0 48.5611179897 20.9597077053 16.5336185011
571 3 1 -1.0 14.1803487117 60.6601208183 32.4667373474
572 3 1 -1.0 10.3085510125 52.4866755178 6.38829744408
573 3 1 -1.0 14.1383582063 57.0694290123 19.7357403226
574 3 1 -1.0 22.9291126148 37.5129558343 29.4696925274
575 3 1 -1.0 26.4752838192 38.2828890415 41.3450397724
576 3 1 -1.0 18.1623887427 51.8476544269 3.66166981806
577 3 1 -1.0 33.3365492433 36.4812431958 13.1235231048
578 3 1 -1.0 21.9778950422 59.1079689495 43.5610684023
579 3 1 -1.0 21.05431561 38.6106851766 40.3958329219
580 3 1 -1.0 17.1931586176 60.1172270404 46.108666219
581 3 1 -1.0 8.436842029 39.1400748976 8.81408665591
582 3 1 -1.0 49.2356911726 55.8892952186 37.7756182456
583 3 1 -1.0 0.705415535584 53.2234720064 15.4113214936
584 3 1 -1.0 44.5156025364 36.6318955037 46.8481612506