# LAMMPS config file [2022-03-01 17:37:35]
# 

6 atoms
6 bonds
4 angles

1 atom types
1 bond types
1 angle types

-25.0 25.0 xlo xhi
-25.0 25.0 ylo yhi
-25.0 25.0 zlo zhi

Masses

1 1.0

Atoms

1 1 1 0 1.0 0.0 0.0
2 1 1 0 0.5 0.8660254037844386 0.0
3 1 1 0 -0.5 0.8660254037844386 0.0
4 1 1 0 -1.0 0.0 0.0
5 1 1 0 -0.5 -0.8660254037844386 0.0
6 1 1 0 0.5 -0.8660254037844386 0.0

Bonds

1 1 1 2
2 1 2 3
3 1 3 4
4 1 4 5
5 1 5 6
6 1 6 1

Angles

1 1 1 2 3
2 1 2 3 4
3 1 3 4 5
4 1 4 5 6
