# LAMMPS config file [2020-05-22 18:31:45]
# Neutral Linear Polyelectrolyte

21 atoms
20 bonds
19 angles

1 atom types
1 bond types
1 angle types

-25.0 25.0 xlo xhi
-25.0 25.0 ylo yhi
-25.0 25.0 zlo zhi

Masses

1 1.0

Atoms

1 1 1 0 1.0 1.0 1.0
2 1 1 0 2.0 1.0 1.0
3 1 1 0 3.0 1.0 1.0
4 1 1 0 4.0 1.0 1.0
5 1 1 0 5.0 1.0 1.0
6 1 1 0 6.0 1.0 1.0
7 1 1 0 7.0 1.0 1.0
8 1 1 0 8.0 1.0 1.0
9 1 1 0 9.0 1.0 1.0
10 1 1 0 10.0 1.0 1.0
11 1 1 0 11.0 1.0 1.0
12 1 1 0 12.0 1.0 1.0
13 1 1 0 13.0 1.0 1.0
14 1 1 0 14.0 1.0 1.0
15 1 1 0 15.0 1.0 1.0
16 1 1 0 16.0 1.0 1.0
17 1 1 0 17.0 1.0 1.0
18 1 1 0 18.0 1.0 1.0
19 1 1 0 19.0 1.0 1.0
20 1 1 0 20.0 1.0 1.0
21 1 1 0 21.0 1.0 1.0

Bonds

1 1 1 2
2 1 2 3
3 1 3 4
4 1 4 5
5 1 5 6
6 1 6 7
7 1 7 8
8 1 8 9
9 1 9 10
10 1 10 11
11 1 11 12
12 1 12 13
13 1 13 14
14 1 14 15
15 1 15 16
16 1 16 17
17 1 17 18
18 1 18 19
19 1 19 20
20 1 20 21

Angles

1 1 1 2 3
2 1 2 3 4
3 1 3 4 5
4 1 4 5 6
5 1 5 6 7
6 1 6 7 8
7 1 7 8 9
8 1 8 9 10
9 1 9 10 11
10 1 10 11 12
11 1 11 12 13
12 1 12 13 14
13 1 13 14 15
14 1 14 15 16
15 1 15 16 17
16 1 16 17 18
17 1 17 18 19
18 1 18 19 20
19 1 19 20 21
