# LAMMPS config file [2020-05-23 17:29:00]
# Statistical Star Polyelectrolyte in Neutral system

46 atoms
20 bonds
22 angles

1 atom types
1 bond types
1 angle types

-25.0 25.0 xlo xhi
-25.0 25.0 ylo yhi
-25.0 25.0 zlo zhi

Masses

1 1.0

Atoms

1 1 1 0.0 5.0 0.0 0.0
2 1 1 1.0 4.0 0.0 0.0
3 1 1 0.0 3.0 0.0 0.0
4 1 1 0.0 2.0 0.0 0.0
5 1 1 1.0 1.0 0.0 0.0
6 1 1 0.0 0.0 5.0 0.0
7 1 1 0.0 0.0 4.0 0.0
8 1 1 1.0 0.0 3.0 0.0
9 1 1 0.0 0.0 2.0 0.0
10 1 1 0.0 0.0 1.0 0.0
11 1 1 1.0 0.0 0.0 5.0
12 1 1 0.0 0.0 0.0 4.0
13 1 1 0.0 0.0 0.0 3.0
14 1 1 0.0 0.0 0.0 2.0
15 1 1 0.0 0.0 0.0 1.0
16 1 1 0.0 -5.0 0.0 0.0
17 1 1 0.0 -4.0 0.0 0.0
18 1 1 1.0 -3.0 0.0 0.0
19 1 1 0.0 -2.0 0.0 0.0
20 1 1 0.0 -1.0 0.0 0.0
21 1 1 0.0 0.0 0.0 0.0
22 2 1 -1.0 33.590136595 32.5661348155 49.3243692205
23 2 1 -1.0 46.7012829508 37.4942184465 24.3403272827
24 2 1 -1.0 3.96511787602 38.3050784769 3.77916475358
25 2 1 -1.0 38.3714456446 0.0279617859171 11.726839806
26 2 1 -1.0 6.27066322908 20.1962356022 35.0957704921
27 2 1 -1.0 0.440235805381 32.3793741214 42.4765715038
28 2 1 -1.0 40.658154599 32.8287149306 47.0689046792
29 2 1 -1.0 38.1022655514 32.4100460682 2.88962569729
30 2 1 -1.0 4.80094987459 8.31990282678 4.59244759099
31 2 1 -1.0 48.660225631 31.7707055355 17.1081788646
32 2 1 1.0 21.9117071895 40.8256425077 29.0403347308
33 2 1 1.0 14.4816801608 36.7044429639 43.3967606463
34 2 1 1.0 1.49648572646 15.8252188704 8.38054046925
35 2 1 1.0 6.67043761659 15.676850868 10.0594601886
36 2 1 1.0 24.6610348043 42.0771246263 6.07936257293
37 2 1 1.0 47.7598537072 40.8141490678 39.2427691301
38 2 1 1.0 42.5285315789 48.3748614396 0.699533933003
39 2 1 1.0 30.2617958039 46.1296219164 33.2904033986
40 2 1 1.0 27.6400765137 24.7766358652 49.2167418605
41 2 1 1.0 15.0642131792 2.9001392152 6.09565877893
42 1 1 -1.0 0.793049915611 0.386120923169 0.697673651518
43 1 1 -1.0 0.460201785124 0.808638525631 0.0609595589902
44 1 1 -1.0 0.074249079841 0.458824183407 0.0775886901682
45 1 1 -1.0 0.122661701412 0.768963649639 0.929438514029
46 1 1 -1.0 0.396757310525 0.296876243849 0.245027164073

Bonds

1 1 1 2
2 1 2 3
3 1 3 4
4 1 4 5
5 1 5 21
6 1 6 7
7 1 7 8
8 1 8 9
9 1 9 10
10 1 10 21
11 1 11 12
12 1 12 13
13 1 13 14
14 1 14 15
15 1 15 21
16 1 16 17
17 1 17 18
18 1 18 19
19 1 19 20
20 1 20 21

Angles

1 1 1 2 3
2 1 2 3 4
3 1 3 4 5
4 1 6 7 8
5 1 7 8 9
6 1 8 9 10
7 1 11 12 13
8 1 12 13 14
9 1 13 14 15
10 1 16 17 18
11 1 17 18 19
12 1 18 19 20
13 1 4 5 21
14 1 9 10 21
15 1 14 15 21
16 1 19 20 21
17 1 5 21 10
18 1 5 21 15
19 1 5 21 20
20 1 10 21 15
21 1 10 21 20
22 1 15 21 20
