ITEM: TIMESTEP
190900
ITEM: NUMBER OF ATOMS
378
ITEM: BOX BOUNDS pp pp pp
-50 50
-50 50
-50 50
ITEM: ATOMS id type x y z q vx vy vz mol 
74 1 47.9767 -47.8753 -46.5037 -1 0.752785 -0.119156 -0.820538 3 
298 1 7.71261 -44.8633 -48.4152 -1 0.128773 -0.517007 -2.38558 3 
100 1 18.2558 -39.2839 -46.5893 -1 0.213435 1.57914 1.01484 3 
113 1 29.6988 -38.904 -46.7283 1 -0.659248 -0.951033 1.59565 3 
126 1 -27.0594 -30.105 -46.6512 -1 -1.21874 -1.72527 0.855283 3 
151 1 47.1179 -24.9663 -44.6868 1 0.868842 0.366394 0.339779 3 
276 1 -37.5078 -20.9218 -46.9523 -1 0.77123 -1.33801 -0.969333 3 
314 1 -25.9873 -20.388 -48.1444 -1 0.90079 1.63345 0.518334 3 
177 1 28.456 -19.7876 -46.716 1 0.385666 0.28903 0.814109 3 
339 1 -33.8087 -9.08697 -45.4971 1 0.772809 0.47335 0.19879 3 
98 1 -33.248 -10.7335 -47.5359 -1 -1.00857 -1.87397 -1.30513 3 
274 1 -18.0484 -11.2258 -47.4613 -1 2.12688 0.358188 0.223137 3 
166 1 26.8402 -14.9963 47.4916 -1 0.651836 -2.06186 -2.45362 3 
237 1 15.1808 -5.59155 -44.968 1 2.21547 -0.181979 1.31132 3 
160 1 42.0386 -5.39987 -47.8559 -1 -0.95106 1.12433 -0.759781 3 
170 1 -34.9914 2.99099 -45.723 -1 3.30811 2.12603 1.92042 3 
311 1 -45.0201 6.61194 -47.0179 1 3.07945 0.756322 -1.32809 3 
268 1 26.5204 10.7451 -45.6441 -1 0.648968 1.21088 0.591281 3 
232 1 47.9679 10.0511 48.4661 -1 1.1901 1.03852 -2.51034 3 
182 1 6.25615 14.5034 -49.9189 -1 1.21578 -0.45134 -0.529421 3 
129 1 36.7977 19.5002 -46.8442 1 2.17553 0.898133 -0.140414 3 
355 1 33.0543 16.1932 -49.1381 -1 -1.47427 -0.427577 -1.25626 3 
345 1 -47.2682 29.9275 -44.8366 1 0.444659 -0.682871 0.512394 3 
77 1 42.2445 30.249 -47.9748 1 -0.0322804 0.436936 1.52521 3 
78 1 18.617 45.4767 -48.3276 -1 -0.599859 1.64692 0.727702 3 
239 1 -16.4235 49.1367 -42.8817 1 0.403251 -0.705772 -0.0969401 3 
121 1 -26.8793 -26.6425 -46.8694 1 -0.0561653 2.77179 -1.79173 3 
370 1 14.2629 -30.487 -42.4543 -1 0.797212 0.851186 -0.420416 3 
329 1 -32.9596 -2.62388 -42.5143 1 -0.492117 0.139656 -0.109476 3 
377 1 -49.8536 10.9638 -42.6846 -1 0.00100668 1.19341 -1.24805 3 
208 1 -8.11879 25.1745 -44.7217 -1 0.012377 -1.03933 -1.31377 3 
107 1 5.68244 26.8386 -44.6886 1 1.56821 -0.15857 -1.55858 3 
192 1 -17.9918 29.9608 -40.2931 -1 1.06189 -0.0326929 0.471632 3 
291 1 -8.92167 30.1255 -43.4124 1 -1.28526 -0.446498 0.503959 3 
284 1 -20.8675 35.7949 -43.5525 -1 -1.78342 0.369071 -0.121328 3 
200 1 23.0913 37.4106 -41.896 -1 0.123423 -0.372747 1.88053 3 
323 1 -39.4914 42.6455 -39.4504 1 1.42526 1.40189 0.763833 3 
251 1 -30.42 44.11 -44.6371 1 2.88804 0.599949 -0.53521 3 
313 1 5.77261 -34.8315 -39.9981 1 0.389212 1.46342 -1.71899 3 
85 1 35.5929 -36.5452 -40.3237 1 0.16079 -0.818081 -1.46623 3 
83 1 45.5239 -35.7102 -35.8111 1 -0.940478 1.54578 -0.921939 3 
117 1 45.8091 -33.7743 -39.6842 1 0.708464 1.65714 -3.17946 3 
367 1 -1.52137 -29.3863 -34.7302 -1 0.484633 -0.699282 2.26613 3 
101 1 -14.7243 -24.1399 -35.9216 1 0.306993 -1.65046 0.143602 3 
157 1 24.4634 -21.5022 -38.5531 1 -0.0850581 -0.035019 0.135992 3 
106 1 -33.1065 -7.98618 -38.9976 -1 0.812389 -1.1935 -0.450381 3 
322 1 -30.344 4.41686 -38.2195 -1 -0.466275 -0.316698 0.82805 3 
110 1 25.1624 17.8612 -36.1563 -1 1.2084 1.59505 -1.30633 3 
223 1 17.3934 25.0794 -39.9451 1 -0.134038 1.56697 -0.439834 3 
231 1 40.3703 22.0304 -35.6735 1 -0.307679 1.14489 1.14982 3 
363 1 -31.0389 25.0256 -37.4564 -1 0.835253 0.591314 0.394825 3 
350 1 42.6975 26.2865 -39.0655 -1 1.14332 -0.474329 -0.733282 3 
348 1 41.2161 27.5879 -37.0237 -1 0.752352 2.02257 -1.13329 3 
186 1 -23.7128 31.0722 -33.9758 -1 -0.0137994 1.41125 1.53905 3 
286 1 -45.1753 45.1561 -36.5977 -1 -1.13546 -0.51091 0.0688287 3 
255 1 25.2114 48.67 -41.1394 1 1.65204 0.470851 -1.32706 3 
149 1 -49.4584 -48.7329 -33.0389 1 -0.524997 -0.82363 -0.930339 3 
132 1 -36.967 -32.0904 -26.9671 -1 -1.38498 1.1818 1.79471 3 
289 1 2.93224 -12.6082 -30.2352 1 2.01178 -1.38162 -0.520282 3 
249 1 20.2938 -10.5785 -32.2496 1 1.49336 -0.0927289 -0.618994 3 
215 1 18.4083 -4.37459 -31.1232 1 -0.85014 0.316913 1.06297 3 
88 1 22.5569 -0.641349 -30.5678 -1 0.773188 -0.68803 -0.361375 3 
304 1 -39.4523 22.4866 -32.2905 -1 1.0821 2.96836 -1.27736 3 
79 1 25.0002 48.236 -31.8159 1 -0.681189 -0.561618 -0.257501 3 
261 1 -32.2981 -48.8552 -24.4694 1 -1.16774 -0.353335 0.692447 3 
344 1 21.715 -49.5751 -23.4778 -1 -0.121272 -0.012914 0.871429 3 
122 1 -29.3163 -39.8103 -27.2061 -1 -1.15627 1.07063 -0.255686 3 
253 1 -21.1731 -39.4701 -23.7651 1 0.797457 1.64666 0.556754 3 
287 1 -45.9413 -36.6334 -25.9808 1 -0.666755 -0.255405 -1.15229 3 
221 1 -4.7681 -29.5956 -28.1141 1 -0.66366 0.724088 0.364209 3 
127 1 -49.2518 -21.1354 -25.059 1 -0.454567 2.169 0.581609 3 
233 1 -35.0814 -22.2497 -25.609 1 -0.0205816 -0.248838 1.44335 3 
124 1 5.41598 -18.8713 -26.9477 -1 -1.45168 -2.1353 -2.16159 3 
262 1 19.8463 -17.9512 -28.364 -1 0.797899 -2.27846 -0.0301475 3 
340 1 -2.27729 -5.95404 -28.4851 -1 0.365101 -0.0513087 -0.330593 3 
118 1 0.824053 4.75572 -29.9274 -1 1.94415 0.58123 -1.02131 3 
282 1 -33.7125 6.18554 -26.0577 -1 -1.3335 -1.40684 -1.10245 3 
199 1 -20.0904 16.8632 -29.0936 1 1.18173 0.553983 -0.328808 3 
155 1 -5.26009 20.5239 -25.3646 1 0.360998 1.48398 0.567078 3 
364 1 -38.6905 21.9999 -26.1985 -1 0.541052 -1.23259 -1.86477 3 
202 1 11.0105 32.2277 -27.9626 -1 -1.34435 -0.665296 -0.00896484 3 
319 1 21.6022 29.7012 -26.6654 1 -1.57455 -0.624995 0.584206 3 
217 1 -36.7764 35.6776 -27.7716 1 0.788458 0.191142 -1.42717 3 
235 1 1.26756 38.004 -23.7072 1 -0.956501 1.91656 0.0499847 3 
227 1 -49.2256 43.632 -26.2997 1 -0.611439 1.29754 0.480219 3 
203 1 31.0032 40.8395 -24.3961 1 -1.41183 0.492528 0.0117417 3 
335 1 -15.414 44.4506 -25.342 1 -0.868581 -1.84375 0.571025 3 
222 1 37.9714 45.9292 -27.8773 -1 0.0955753 0.353323 0.20788 3 
210 1 -21.8817 -47.4504 -24.9049 -1 -0.126297 1.09423 -1.37701 3 
297 1 36.8922 -48.9924 -23.0412 1 3.077 -0.512836 0.167472 3 
134 1 39.3723 -39.1411 -19.2386 -1 -0.681227 0.436243 0.637785 3 
309 1 -17.0383 -35.2693 -21.8562 1 -0.804947 0.680375 0.937269 3 
357 1 9.52183 -37.3129 -20.6111 -1 -0.497134 -0.363616 -0.0558797 3 
139 1 19.6589 -39.2424 -19.6862 1 0.487806 -1.10205 0.710114 3 
135 1 35.7755 -34.8689 -21.0621 1 -0.341818 -1.68317 -0.471912 3 
111 1 -23.8784 -28.2781 -24.8957 1 -1.47461 -1.08705 -2.00991 3 
181 1 26.2901 -22.6744 -21.3991 1 0.481268 -0.307231 -0.894739 3 
146 1 30.7774 -7.48172 -18.6323 -1 0.73752 1.25232 0.457095 3 
305 1 -42.8217 -5.65112 -18.5329 1 -1.42659 0.586041 0.293372 3 
108 1 20.948 6.14745 -17.6376 -1 0.233516 2.14181 0.990011 3 
103 1 39.0421 5.50221 -21.7169 1 -0.906894 -1.57821 -0.371765 3 
353 1 45.978 1.63549 -23.0298 -1 0.249072 -0.902166 -2.31776 3 
230 1 14.4051 11.3789 -21.1921 -1 1.87414 0.446998 -1.8308 3 
343 1 16.2439 8.96178 -20.6311 1 -0.669755 -0.63494 -0.534966 3 
91 1 -21.4829 14.6608 -22.4938 1 0.707643 0.319669 -0.730476 3 
219 1 -4.00564 19.0393 -20.8151 1 -0.803951 0.536873 -0.547125 3 
72 1 13.9218 18.6517 -19.3265 -1 -0.00938892 0.358507 -0.443007 3 
315 1 -28.0926 32.7151 -19.6023 1 -1.65212 -0.298439 0.00305187 3 
148 1 1.66743 31.8229 -21.3811 -1 1.03529 -1.09637 0.528159 3 
90 1 -28.2559 37.8074 -22.8635 -1 -0.40426 1.43543 -0.83025 3 
176 1 -20.0677 36.5253 -22.6038 -1 -1.15778 0.338126 0.638007 3 
198 1 -10.7948 30.6327 -17.4542 -1 -1.84986 -3.51197 0.730821 3 
194 1 48.9526 47.6618 -19.2202 -1 0.0947566 0.385594 1.02429 3 
247 1 -33.5148 -39.5319 -17.576 1 -1.28395 0.361692 -0.939923 3 
347 1 -23.3875 -35.3022 -18.875 1 -0.442991 0.0654605 -2.15805 3 
338 1 -13.8552 -34.4809 -14.4749 -1 0.677203 0.245712 -0.864113 3 
173 1 29.4197 -27.7813 -15.6054 1 1.4471 -0.652297 1.49121 3 
196 1 23.755 -4.52244 -17.0135 -1 0.612007 2.15248 -0.613833 3 
246 1 2.68816 3.55803 -13.4583 -1 0.621661 1.17847 -0.0735711 3 
73 1 41.4027 13.7717 -15.1499 1 -0.278589 -1.18876 -0.899324 3 
169 1 -46.1205 21.5165 -14.5803 1 -0.58298 0.314448 -0.739516 3 
109 1 -0.121222 21.6881 -12.6116 1 -1.25734 -1.03394 0.616582 3 
112 1 26.1975 27.6049 -16.679 -1 0.601014 -0.460869 -0.413121 3 
277 1 8.56093 29.671 -14.173 1 0.0542672 0.169112 -0.339114 3 
204 1 27.6376 33.1844 -16.2481 -1 -0.694132 0.793246 -0.166284 3 
234 1 -43.4379 37.0363 -16.6915 -1 0.10326 1.25732 0.311427 3 
89 1 -18.8465 40.6253 -13.0688 1 0.947729 0.730825 1.40275 3 
266 1 -7.51291 39.678 -15.9843 -1 -0.811953 -1.55078 0.293751 3 
376 1 18.9718 -44.5664 -10.7444 -1 -1.64554 0.552557 -1.43026 3 
142 1 -3.44519 -40.7933 -9.96415 -1 -1.62292 -0.318304 -1.24628 3 
156 1 44.7311 -43.9588 -10.5574 -1 0.312638 -0.192225 1.61192 3 
269 1 -11.1905 -18.5333 -8.83496 1 -0.858759 -0.659042 0.521274 3 
293 1 -24.0202 -4.01492 -13.7131 1 0.209878 0.114056 -1.66194 3 
259 1 8.17273 -6.37502 -9.57907 1 -0.385318 0.234862 -0.481468 3 
310 1 -16.5986 1.57643 -14.2687 -1 0.0346115 0.024418 -3.55501 3 
373 1 31.7477 2.22527 -12.242 -1 -0.207046 0.793776 -0.119822 3 
267 1 41.3634 -0.245469 -11.4581 1 -1.13417 0.479957 0.48273 3 
174 1 4.79894 4.24049 -10.6509 -1 0.261568 -0.0373288 0.443947 3 
341 1 38.0527 2.25247 -14.3 1 0.294485 -1.72334 -1.07097 3 
288 1 -49.2503 11.0479 -11.4806 -1 -0.862499 -0.0594381 -0.252945 3 
141 1 -31.4869 19.557 -11.3774 1 -1.04142 1.48048 -0.317089 3 
188 1 4.02121 18.0821 -8.39219 -1 -0.948215 0.0811716 1.10414 3 
97 1 -48.2791 20.5809 -11.3975 1 0.114638 -1.55321 -0.917301 3 
175 1 -39.7033 19.4376 -11.5307 1 0.409133 -2.03994 -1.88751 3 
94 1 -28.1855 32.0746 -8.30387 -1 -0.533948 0.904231 2.1551 3 
104 1 -19.5449 31.3531 -11.3555 -1 0.933335 -0.0566975 -0.55144 3 
123 1 -3.89509 31.2828 -10.1007 1 0.0891974 -0.127803 0.192633 3 
368 1 -41.5241 36.2027 -8.52436 -1 -0.506348 -1.69265 -0.185917 3 
371 1 -25.5236 -39.3604 -3.53112 -1 2.99121 0.729369 0.302491 3 
225 1 38.6096 -36.1805 -9.66256 1 0.788965 0.248451 -2.9826 3 
332 1 -42.9236 -20.9225 -9.33861 -1 -1.34962 0.642737 -2.12926 3 
318 1 40.0481 2.61413 -6.0292 -1 -0.821159 -0.49762 0.631539 3 
281 1 -28.2836 15.2069 -2.94153 1 -0.171629 0.304176 -0.17796 3 
292 1 3.81877 25.469 -4.99225 -1 0.149204 3.71106 0.120924 3 
214 1 -33.4673 30.9096 -4.97046 -1 0.439635 0.461607 0.127287 3 
372 1 16.5487 34.5867 -1.348 -1 0.201879 0.51689 1.96195 3 
278 1 -35.1221 37.4487 -1.61191 -1 0.895943 1.04238 1.33047 3 
128 1 -44.9283 42.7747 -4.79165 -1 -2.16234 0.494983 0.428824 3 
140 1 32.4686 40.6549 -6.66269 -1 0.791018 -0.671369 1.19678 3 
224 1 -8.51719 -31.0374 0.515196 -1 -0.085104 0.953935 0.420109 3 
207 1 36.6516 -19.3347 -1.25841 1 -0.178206 -0.667344 -0.494925 3 
102 1 -39.8248 -2.94287 -0.582127 -1 -0.316759 0.14365 -1.45981 3 
296 1 32.5688 -2.25646 3.39282 -1 -0.721779 1.42165 0.891386 3 
81 1 11.0961 3.27082 -0.7138 1 -1.20541 -0.397232 -1.1386 3 
374 1 26.1302 3.15713 0.0277325 -1 0.437426 -0.340172 1.23141 3 
241 1 -45.4528 10.8117 2.56699 1 -0.808437 0.258887 0.975092 3 
168 1 5.27072 16.9813 -2.6784 -1 0.186232 -1.74593 -0.708578 3 
260 1 34.1708 19.6727 -1.21709 -1 2.01156 -1.20666 -1.05725 3 
80 1 -43.3538 29.0367 2.33951 -1 -0.0966319 -0.371733 2.04597 3 
327 1 42.3542 33.9425 0.628551 1 0.399802 1.25705 1.93859 3 
299 1 4.30304 38.7246 2.95904 1 -0.139899 -0.46116 0.466776 3 
263 1 -32.3405 42.5741 -0.174168 1 0.366564 -0.4805 1.2281 3 
131 1 32.1369 43.1271 -1.09548 1 -0.651444 -1.10689 0.668432 3 
75 1 -28.8738 44.9779 3.25805 1 1.53344 -0.938222 1.65039 3 
1 1 27.4704 -45.867 7.01577 1 -0.109684 1.48926 1.48388 1 
50 1 26.6667 -45.9838 6.64621 -1 0.14629 0.385622 -0.0887917 2 
2 1 26.5635 -45.3384 6.98262 1 -1.59303 1.48524 -0.257219 1 
3 1 25.668 -44.703 7.46444 1 -1.70051 0.596185 -1.63456 1 
51 1 25.9488 -45.1748 7.0876 -1 -0.478755 -0.856168 -0.735455 2 
143 1 -23.7664 -34.8626 4.52931 1 1.18692 0.754805 -0.213353 3 
96 1 27.5548 -35.721 5.92261 -1 0.920776 0.0991812 0.289687 3 
352 1 22.866 -20.5452 5.57949 -1 0.247443 -0.958028 -0.921728 3 
360 1 29.8185 -19.9655 3.75719 -1 -0.30381 -0.0400654 -2.09079 3 
275 1 20.4669 -14.1312 1.11972 1 0.708822 0.733701 -2.09809 3 
226 1 1.39324 -11.079 6.78206 -1 -0.403993 0.296212 -0.186616 3 
84 1 -12.2782 -4.09436 6.24007 -1 0.831508 -2.00318 0.817122 3 
147 1 20.4974 17.4203 2.54613 1 -0.832524 -0.262314 -0.817731 3 
105 1 -29.2052 21.9063 6.43936 1 0.857429 -1.2829 -0.101028 3 
220 1 47.5705 23.5381 7.83521 -1 0.885894 0.949142 0.481786 3 
191 1 -15.8811 29.1091 6.11712 1 -0.504383 0.414212 -0.130223 3 
99 1 -13.987 27.8995 5.93568 1 -0.846333 -2.44149 1.16463 3 
163 1 -42.726 32.5876 4.76843 1 -1.58489 -1.95433 -2.07837 3 
183 1 -26.9002 40.0267 4.03574 1 -0.778429 0.596973 0.359664 3 
346 1 -6.86302 35.7529 10.9207 -1 0.136608 1.13697 2.40347 3 
86 1 -23.8459 42.489 4.8526 -1 -0.966916 -0.69448 -1.76081 3 
270 1 37.936 43.3593 5.34785 -1 -1.88469 -0.602636 0.373029 3 
336 1 -20.8963 49.3486 8.83801 -1 -1.21796 -0.876148 -2.17399 3 
52 1 25.3602 -44.4808 7.78673 -1 1.52956 1.09398 0.752493 2 
9 1 21.5749 -41.1418 11.6165 1 -1.35456 -1.4503 -0.981653 1 
57 1 21.2557 -41.2579 11.9481 -1 -1.33047 0.541089 0.808044 2 
8 1 22.1556 -41.8273 10.5036 1 0.655047 -1.82206 -0.974225 1 
7 1 22.7334 -42.1291 9.68232 1 2.21587 0.738555 -1.15905 1 
56 1 21.8095 -41.9756 11.2079 -1 -1.63572 1.15331 0.111989 2 
55 1 22.8846 -42.7453 10.2143 -1 -0.247835 0.225966 -0.58748 2 
10 1 21.538 -40.5882 12.5895 1 -0.257886 -1.2822 1.56371 1 
4 1 25.0037 -44.2675 8.07514 1 -2.09525 1.61306 -0.431902 1 
5 1 24.3748 -43.3436 8.30355 1 0.704035 -2.05686 -0.536506 1 
53 1 24.7613 -43.8332 8.45314 -1 -1.34078 0.136963 0.324449 2 
54 1 23.9774 -43.3129 9.49208 -1 0.141304 -0.841757 -1.55134 2 
6 1 23.7792 -42.6292 8.77217 1 1.49897 -1.18957 0.800468 1 
58 1 20.946 -40.6553 12.7204 -1 1.68202 1.27621 -0.354592 2 
23 1 22.2185 -23.9633 13.4352 1 1.23444 1.26697 -0.434079 1 
180 1 -6.0652 -20.0594 8.68894 -1 1.12329 -1.09271 -0.616473 3 
20 1 21.3471 -20.3584 11.9421 1 0.248439 0.0778649 0.900012 1 
21 1 21.5811 -22.184 12.5132 1 1.12159 -0.896918 -0.250477 1 
22 1 22.1901 -23.0434 12.7587 1 -1.26629 0.101651 -0.199836 1 
19 1 21.22 -19.3649 11.5831 1 0.421191 -1.51816 2.86791 1 
321 1 -26.0086 -15.9919 8.67889 1 1.1486 -0.969942 0.268117 3 
337 1 -13.499 -13.2817 13.2823 1 0.161681 0.261033 0.892891 3 
158 1 13.4663 -17.0839 9.38656 -1 -0.953143 -1.5128 -2.53767 3 
18 1 21.0788 -17.8276 11.173 1 -0.328099 1.48883 -2.24088 1 
17 1 21.0735 -16.7013 10.8167 1 -1.45879 -0.441441 -0.79955 1 
272 1 -45.1024 -12.581 9.86757 -1 -0.315838 0.413507 -1.89416 3 
366 1 30.4887 -8.12197 12.2358 -1 -0.115267 -2.64229 0.286878 3 
195 1 46.5333 13.3169 11.7384 1 1.72136 -0.433167 -0.919748 3 
209 1 -43.9657 24.5637 7.95164 1 1.14374 0.870478 -0.298161 3 
216 1 11.3054 22.1077 13.8133 -1 1.31231 -2.20106 1.40982 3 
375 1 -17.1357 36.3316 9.60596 -1 0.406194 0.113664 -1.51837 3 
258 1 -36.0419 38.8898 10.6867 -1 0.895666 -0.667195 0.167395 3 
333 1 24.3548 49.5188 11.4951 1 0.504574 0.290555 -0.934975 3 
11 1 21.3793 -39.8543 13.356 1 -0.179141 0.0155078 -0.139707 1 
59 1 20.8148 -39.5626 13.4963 -1 -0.498933 -0.0195298 -0.0489869 2 
64 1 18.8917 -34.7774 16.7378 -1 0.13961 -0.0333192 0.511084 2 
12 1 21.3105 -38.753 13.7922 1 -0.228415 -0.304064 2.09909 1 
60 1 20.9976 -38.4877 14.3197 -1 -0.932734 0.161765 -1.83412 2 
13 1 20.9381 -38.003 14.4487 1 -0.441173 -1.43437 -0.0362239 1 
14 1 20.3483 -37.0179 15.1323 1 -1.2291 0.294554 -0.56254 1 
61 1 20.6581 -37.4346 14.9531 -1 1.55228 -2.06119 -0.813788 2 
15 1 19.7512 -36.3979 15.909 1 0.160374 -1.23035 -1.41429 1 
62 1 20.1217 -36.7791 15.6223 -1 -0.632835 -0.126952 0.0497688 2 
16 1 19.2949 -35.6573 16.688 1 -0.589163 0.404374 -0.0965506 1 
63 1 19.5961 -35.8553 16.1732 -1 -0.338757 -1.47009 0.351578 2 
49 1 19.1629 -34.6857 17.2889 1 0.900517 -1.41209 1.34976 1 
65 1 18.087 -34.2957 17.3939 -1 1.44735 2.19313 0.565853 2 
236 1 -35.5544 -31.9628 14.456 -1 -1.16995 -0.633229 -0.725319 3 
32 1 19.7424 -33.3888 17.4169 1 -1.95714 1.43205 -1.15418 1 
31 1 20.3884 -32.5009 17.5648 1 -1.76347 0.727179 -0.693808 1 
30 1 20.8574 -31.5497 17.5694 1 1.50003 0.795779 -1.73328 1 
29 1 21.4363 -30.6899 17.1174 1 -0.232018 0.707404 -0.0522287 1 
28 1 21.6585 -29.9634 16.2939 1 2.32185 -0.527174 -0.0615058 1 
24 1 21.999 -25.3534 14.1674 1 -0.768836 -0.20144 1.05921 1 
25 1 21.8212 -26.4459 14.8319 1 -0.0717169 0.654669 1.10308 1 
26 1 21.8542 -27.5058 15.2883 1 0.436165 0.693972 1.47717 1 
27 1 21.7904 -28.8961 15.6938 1 0.303165 -1.41614 0.856572 1 
184 1 -38.6266 -23.1771 12.1267 -1 -0.746753 -0.171933 -1.08367 3 
125 1 2.78299 -14.1029 12.0544 1 1.29655 0.713243 -1.98264 3 
279 1 -36.3703 -10.358 19.5236 1 1.28049 0.937001 1.17583 3 
334 1 18.8979 -11.8767 15.4946 -1 -0.996905 0.678896 1.355 3 
358 1 25.1892 -2.10319 14.5844 -1 -0.465671 0.969429 0.242753 3 
354 1 -37.6134 -1.19781 15.8449 -1 0.148556 -0.360572 -0.336716 3 
361 1 13.6927 5.61942 13.7325 -1 -0.561718 1.06437 -1.1642 3 
137 1 29.637 14.1189 13.8434 1 0.337276 -2.17595 -1.64633 3 
114 1 -46.9739 22.8222 17.3318 -1 -0.414641 -0.161888 1.56552 3 
265 1 -34.7266 20.9328 20.6399 1 0.957754 0.903111 1.89455 3 
87 1 -29.6465 20.6854 17.951 1 0.724568 -0.929136 0.855503 3 
212 1 46.6511 27.6082 14.8374 -1 0.703423 -0.235145 1.09275 3 
248 1 37.5625 29.4154 16.9261 -1 -0.283636 -0.400575 0.765463 3 
243 1 -14.1026 36.7931 14.4918 1 -0.393454 0.904608 -0.0330579 3 
356 1 35.1088 36.6184 14.6069 -1 -0.255519 -2.20624 0.230807 3 
115 1 3.69908 -45.7504 24.2079 1 -0.551813 0.357661 1.01728 3 
229 1 -45.6011 -41.8131 23.2385 1 -0.00825649 1.06816 -0.139089 3 
252 1 16.184 -44.4586 18.5608 -1 -0.0116756 -0.519809 -0.396562 3 
46 1 16.5808 -33.9755 19.8727 1 -0.547502 1.3178 0.943766 1 
67 1 16.8865 -33.7513 19.2079 -1 1.19932 -1.70689 -1.09735 2 
69 1 15.5531 -33.8619 21.2907 -1 -0.988035 0.70355 -1.17707 2 
68 1 16.138 -33.6207 20.3595 -1 -2.45278 0.46964 0.607754 2 
48 1 18.0261 -34.5407 17.9221 1 -1.05888 -0.44794 -0.715754 1 
41 1 12.725 -32.7739 24.7544 1 -0.685406 -1.68887 0.123623 1 
47 1 17.2134 -34.3136 19.0537 1 -1.06405 2.3381 -0.421149 1 
66 1 17.6202 -33.8797 18.2677 -1 0.685671 -2.02237 -0.812786 2 
42 1 13.415 -33.0996 23.9115 1 0.849094 0.899836 1.42176 1 
45 1 15.7324 -33.7964 20.771 1 0.967645 -1.43401 -0.496289 1 
70 1 14.727 -33.6857 22.4395 -1 -0.341323 1.88284 0.360779 2 
44 1 14.9598 -33.3277 21.7489 1 -0.549934 -1.49011 0.388274 1 
43 1 14.1891 -33.2808 22.8586 1 -0.0137854 -0.376423 0.307126 1 
280 1 23.5987 -29.2953 21.3471 -1 -1.90524 2.2863 -0.722009 3 
179 1 27.1383 -23.8616 21.8031 1 0.399718 -0.219886 0.0244967 3 
190 1 -2.94971 -20.2528 21.9934 -1 1.08992 -1.10498 0.592352 3 
138 1 48.564 9.46086 20.7855 -1 -0.273395 1.57273 1.03051 3 
228 1 -48.9555 1.77533 25.0033 -1 1.40437 -1.71118 1.04065 3 
93 1 30.9678 9.30306 21.4434 1 0.0440418 0.796313 0.153464 3 
130 1 40.0839 9.57624 22.3403 -1 1.06327 -0.338068 -0.378063 3 
178 1 37.5167 16.3322 18.7739 -1 -0.335365 -0.152411 -0.014117 3 
197 1 28.7424 28.2006 19.7923 1 0.51829 -0.522016 -1.07322 3 
306 1 24.2041 31.0392 19.5583 -1 0.424287 -0.759539 -0.641478 3 
365 1 -46.4572 -46.6762 24.1898 -1 -0.572544 1.97709 -1.03846 3 
144 1 -27.8062 47.2223 27.1883 -1 0.0898401 -2.46588 0.856105 3 
206 1 30.8231 49.0564 25.995 -1 2.1454 -0.743122 1.01935 3 
330 1 -29.3768 -45.5784 22.2947 -1 1.29835 -0.716634 -1.44111 3 
294 1 46.5025 -47.1902 23.6231 -1 -1.52767 -2.06014 -1.11682 3 
119 1 36.4126 -35.6254 25.3601 1 1.01415 0.447895 -1.48378 3 
35 1 6.6432 -27.9529 27.1171 1 0.565606 0.930934 -1.14407 1 
36 1 8.28637 -28.6963 26.6744 1 1.33491 0.999505 -1.78365 1 
39 1 11.1129 -31.3733 25.7269 1 -0.533897 0.826156 0.372017 1 
38 1 10.4749 -30.3737 26.2912 1 -1.31603 2.359 0.965359 1 
40 1 12.1284 -32.0861 25.335 1 2.93938 -0.0599989 0.812438 1 
37 1 9.62312 -29.3107 26.6033 1 -0.11485 -0.233912 -1.02645 1 
33 1 4.59809 -26.3096 28.3528 1 -1.45373 0.318705 0.8082 1 
34 1 5.90726 -27.2306 27.2837 1 -0.324364 2.06837 -1.98534 1 
172 1 -28.331 -8.18221 28.4434 -1 0.295023 0.706691 0.267545 3 
362 1 -16.4475 -10.8493 27.8328 -1 -0.325049 -0.971211 1.20819 3 
273 1 38.947 -6.13117 23.9118 1 -1.27214 0.794786 -0.271583 3 
264 1 -37.1168 0.424923 25.0465 -1 -0.228716 0.704669 0.083772 3 
150 1 -38.274 14.3462 26.9961 -1 -0.255231 1.14121 -1.1678 3 
295 1 -19.8404 18.0666 27.36 1 1.65964 2.171 0.146049 3 
326 1 9.78813 13.5075 26.3014 -1 -0.723491 -0.15586 0.00272656 3 
116 1 44.1351 11.1113 25.9134 -1 1.25645 -1.75177 -0.722828 3 
245 1 3.81601 17.5911 27.5895 1 0.0587562 -0.727967 1.16605 3 
349 1 -2.5939 37.419 27.6208 1 -0.999759 0.600421 0.232414 3 
193 1 -40.2977 49.4211 21.9713 1 0.23872 1.61438 -1.56644 3 
153 1 38.9852 45.7051 26.688 1 -0.304025 -0.326712 0.591787 3 
285 1 -48.108 -40.2671 27.6953 1 -1.22186 0.376641 -1.46577 3 
283 1 -23.2715 -40.8221 30.517 1 0.916642 -0.0495773 1.06845 3 
257 1 25.7157 -31.7555 30.8035 1 -0.341133 1.18444 0.402005 3 
342 1 25.3146 -16.5275 30.9374 -1 -0.0173186 -0.416571 1.37802 3 
154 1 39.7228 -13.1473 26.5287 -1 1.52499 1.13865 -1.98016 3 
331 1 -13.1861 -12.5782 29.7961 1 -0.283094 -1.47622 -0.858409 3 
359 1 35.2441 -10.9689 29.5586 -1 -1.29434 -0.33474 -1.13621 3 
213 1 -33.8146 -1.23325 32.1102 1 0.338624 2.29023 -0.0825143 3 
95 1 6.99413 25.3898 28.4774 1 -0.264199 -2.84283 -0.773486 3 
317 1 23.5174 25.966 35.9232 1 -1.28387 0.123799 1.43522 3 
325 1 -24.7498 43.17 33.9961 1 -0.520344 -0.177629 -0.237603 3 
218 1 40.396 46.751 32.7333 -1 0.022949 0.172526 0.729453 3 
351 1 -20.2933 -27.4331 33.7038 -1 -1.1582 1.17567 -0.650805 3 
76 1 -2.89873 -34.9454 36.714 -1 -0.0962547 -2.0458 -0.340591 3 
159 1 -12.9059 -22.6437 37.4272 1 0.496549 -1.17871 0.87186 3 
145 1 4.59528 11.5168 34.3141 1 -0.0221311 -1.02045 -0.983195 3 
312 1 33.2774 14.4245 39.634 -1 0.470665 1.4245 0.292193 3 
205 1 29.5677 13.9006 39.17 1 -0.226044 1.32773 0.211182 3 
136 1 -35.5594 16.2887 36.5028 -1 0.424244 0.380527 -0.56076 3 
324 1 -1.444 26.759 36.0009 -1 -0.898883 -0.61207 -0.689851 3 
164 1 0.0476657 32.9402 38.2371 -1 0.585818 1.49545 -0.280916 3 
238 1 41.9933 30.4481 34.9457 -1 0.179188 -0.330635 -0.606464 3 
254 1 4.38989 43.5965 38.0882 -1 1.15316 -0.620113 -0.274734 3 
378 1 39.3535 41.295 33.3578 -1 0.0407594 -0.824489 -1.71369 3 
187 1 43.4311 44.0006 40.1 1 -1.46492 -0.409084 1.39418 3 
320 1 -45.4363 -48.3269 36.5645 -1 -0.150061 1.24179 0.864656 3 
300 1 -28.1351 -48.4098 38.2035 -1 -1.63188 1.0927 1.3062 3 
271 1 7.22202 49.0087 37.4904 1 1.20362 0.81361 0.451419 3 
171 1 48.4077 -42.8056 43.2381 1 -0.627572 0.330098 1.61431 3 
308 1 -14.6746 -37.1218 41.9364 -1 0.724534 0.584178 1.51887 3 
250 1 38.7678 -21.7779 42.8738 -1 0.96068 0.206344 0.954844 3 
161 1 42.8473 -19.6224 42.0416 1 0.871781 -1.7432 -0.672045 3 
162 1 22.5625 -3.04033 40.5354 -1 0.880332 0.689449 -0.220814 3 
240 1 -6.20725 0.79674 43.5106 -1 0.0542731 1.02243 -0.797195 3 
133 1 -19.1979 5.22454 41.6018 1 0.810364 1.69751 -0.442147 3 
303 1 -0.353688 5.82515 40.5822 1 -0.410037 -1.27517 -0.113105 3 
242 1 29.6806 4.3403 39.367 -1 0.674525 -0.434862 -0.351791 3 
152 1 17.9014 12.9614 39.1465 -1 1.081 1.65718 -0.833847 3 
165 1 -48.5308 24.7254 39.6441 1 -1.18157 -0.0821938 -0.770719 3 
307 1 -16.1163 35.4692 41.5566 1 1.1869 1.19552 0.63068 3 
369 1 -18.13 42.2379 40.8011 -1 1.28201 0.871752 0.813621 3 
244 1 38.9604 44.1886 42.6747 -1 0.516037 -0.535425 -0.307259 3 
201 1 39.9663 -30.6588 -49.6751 1 1.4647 1.34047 2.10157 3 
302 1 24.1782 -25.7579 43.9893 -1 -0.248628 -1.37437 -0.917413 3 
316 1 -24.2056 -23.104 49.2782 -1 0.747836 -1.58734 0.839972 3 
301 1 -21.0425 -8.56685 -49.3254 1 0.610596 2.4613 2.45023 3 
256 1 28.4288 -11.4648 46.8523 -1 -0.174097 0.00721873 -0.205993 3 
189 1 11.0153 5.10094 42.0918 1 1.4475 -0.599474 -2.27631 3 
71 1 4.8584 10.595 44.7642 1 -0.317238 -1.42594 -0.961775 3 
82 1 7.45956 26.4363 46.0503 -1 0.132726 -0.378033 0.250946 3 
211 1 34.095 28.643 46.8767 1 -0.0354062 0.0626119 0.444697 3 
290 1 6.67832 31.5406 48.7809 -1 -1.0192 1.43659 1.9019 3 
185 1 19.9497 33.6839 48.8184 1 1.10093 1.34918 -0.435947 3 
328 1 -49.1415 37.0586 47.4899 -1 -1.55595 -0.119699 -0.756999 3 
120 1 -12.6544 34.8976 45.5682 -1 1.40382 -1.33914 -0.889504 3 
167 1 2.10965 36.3795 -48.6194 1 0.0234924 0.954004 1.33376 3 
92 1 -31.3768 43.7596 49.2726 -1 -0.532332 -0.182705 -0.238622 3 
