# test
# secondline

51 atoms
50 bonds
55 angles

1 atom types
1 bond types
1 angle types

-30 30 xlo xhi
-30 30 ylo yhi
-30 30 zlo zhi

Masses

1 1.0

Atoms

1 1 1 0.0 10.0 0.0 0.0
2 1 1 0.0 9.0 0.0 0.0
3 1 1 0.0 8.0 0.0 0.0
4 1 1 0.0 7.0 0.0 0.0
5 1 1 0.0 6.0 0.0 0.0
6 1 1 0.0 5.0 0.0 0.0
7 1 1 0.0 4.0 0.0 0.0
8 1 1 0.0 3.0 0.0 0.0
9 1 1 0.0 2.0 0.0 0.0
10 1 1 0.0 1.0 0.0 0.0
11 1 1 0.0 0.0 10.0 0.0
12 1 1 0.0 0.0 9.0 0.0
13 1 1 0.0 0.0 8.0 0.0
14 1 1 0.0 0.0 7.0 0.0
15 1 1 0.0 0.0 6.0 0.0
16 1 1 0.0 0.0 5.0 0.0
17 1 1 0.0 0.0 4.0 0.0
18 1 1 0.0 0.0 3.0 0.0
19 1 1 0.0 0.0 2.0 0.0
20 1 1 0.0 0.0 1.0 0.0
21 1 1 0.0 0.0 0.0 10.0
22 1 1 0.0 0.0 0.0 9.0
23 1 1 0.0 0.0 0.0 8.0
24 1 1 0.0 0.0 0.0 7.0
25 1 1 0.0 0.0 0.0 6.0
26 1 1 0.0 0.0 0.0 5.0
27 1 1 0.0 0.0 0.0 4.0
28 1 1 0.0 0.0 0.0 3.0
29 1 1 0.0 0.0 0.0 2.0
30 1 1 0.0 0.0 0.0 1.0
31 1 1 0.0 -10.0 0.0 0.0
32 1 1 0.0 -9.0 0.0 0.0
33 1 1 0.0 -8.0 0.0 0.0
34 1 1 0.0 -7.0 0.0 0.0
35 1 1 0.0 -6.0 0.0 0.0
36 1 1 0.0 -5.0 0.0 0.0
37 1 1 0.0 -4.0 0.0 0.0
38 1 1 0.0 -3.0 0.0 0.0
39 1 1 0.0 -2.0 0.0 0.0
40 1 1 0.0 -1.0 0.0 0.0
41 1 1 0.0 0.0 -10.0 0.0
42 1 1 0.0 0.0 -9.0 0.0
43 1 1 0.0 0.0 -8.0 0.0
44 1 1 0.0 0.0 -7.0 0.0
45 1 1 0.0 0.0 -6.0 0.0
46 1 1 0.0 0.0 -5.0 0.0
47 1 1 0.0 0.0 -4.0 0.0
48 1 1 0.0 0.0 -3.0 0.0
49 1 1 0.0 0.0 -2.0 0.0
50 1 1 0.0 0.0 -1.0 0.0
51 1 1 0.0 0.0 0.0 0.0 

Bonds

1 1 1 2
2 1 2 3
3 1 3 4
4 1 4 5
5 1 5 6
6 1 6 7
7 1 7 8
8 1 8 9
9 1 9 10
10 1 10 51
11 1 11 12
12 1 12 13
13 1 13 14
14 1 14 15
15 1 15 16
16 1 16 17
17 1 17 18
18 1 18 19
19 1 19 20
20 1 20 51
21 1 21 22
22 1 22 23
23 1 23 24
24 1 24 25
25 1 25 26
26 1 26 27
27 1 27 28
28 1 28 29
29 1 29 30
30 1 30 51
31 1 31 32
32 1 32 33
33 1 33 34
34 1 34 35
35 1 35 36
36 1 36 37
37 1 37 38
38 1 38 39
39 1 39 40
40 1 40 51
41 1 41 42
42 1 42 43
43 1 43 44
44 1 44 45
45 1 45 46
46 1 46 47
47 1 47 48
48 1 48 49
49 1 49 50
50 1 50 51

Angles

1 1 9 10 51
2 1 19 20 51
3 1 29 30 51
4 1 39 40 51
5 1 49 50 51
6 1 10 51 20
7 1 10 51 30
8 1 10 51 40
9 1 10 51 50
10 1 20 51 30
11 1 20 51 40
12 1 20 51 50
13 1 30 51 40
14 1 30 51 50
15 1 40 51 50
16 1 1 2 3
17 1 2 3 4
18 1 3 4 5
19 1 4 5 6
20 1 5 6 7
21 1 6 7 8
22 1 7 8 9
23 1 8 9 10
24 1 11 12 13
25 1 12 13 14
26 1 13 14 15
27 1 14 15 16
28 1 15 16 17
29 1 16 17 18
30 1 17 18 19
31 1 18 19 20
32 1 21 22 23
33 1 22 23 24
34 1 23 24 25
35 1 24 25 26
36 1 25 26 27
37 1 26 27 28
38 1 27 28 29
39 1 28 29 30
40 1 31 32 33
41 1 32 33 34
42 1 33 34 35
43 1 34 35 36
44 1 35 36 37
45 1 36 37 38
46 1 37 38 39
47 1 38 39 40
48 1 41 42 43
49 1 42 43 44
50 1 43 44 45
51 1 44 45 46
52 1 45 46 47
53 1 46 47 48
54 1 47 48 49
55 1 48 49 50
