# LAMMPS config file [2020-06-29 12:09:18]
# 

4898 atoms
115 bonds
119 angles

3 atom types
2 bond types
2 angle types

-50.0 50.0 xlo xhi
-50.0 50.0 ylo yhi
-50.0 50.0 zlo zhi

Masses

1 1.0
2 1.0
3 1.0

Atoms

1 1 1 2.0 19.0 0.0 0.0
2 1 1 2.0 18.0 0.0 0.0
3 1 1 2.0 17.0 0.0 0.0
4 1 1 2.0 16.0 0.0 0.0
5 1 1 2.0 15.0 0.0 0.0
6 1 1 2.0 14.0 0.0 0.0
7 1 1 2.0 13.0 0.0 0.0
8 1 1 2.0 12.0 0.0 0.0
9 1 1 2.0 11.0 0.0 0.0
10 1 1 2.0 10.0 0.0 0.0
11 1 1 2.0 9.0 0.0 0.0
12 1 1 0.0 8.0 0.0 0.0
13 1 1 0.0 7.0 0.0 0.0
14 1 1 0.0 6.0 0.0 0.0
15 1 1 0.0 5.0 0.0 0.0
16 1 1 0.0 4.0 0.0 0.0
17 1 1 0.0 3.0 0.0 0.0
18 1 1 0.0 2.0 0.0 0.0
19 1 1 0.0 1.0 0.0 0.0
20 1 1 2.0 0.0 19.0 0.0
21 1 1 2.0 0.0 18.0 0.0
22 1 1 2.0 0.0 17.0 0.0
23 1 1 2.0 0.0 16.0 0.0
24 1 1 2.0 0.0 15.0 0.0
25 1 1 2.0 0.0 14.0 0.0
26 1 1 2.0 0.0 13.0 0.0
27 1 1 2.0 0.0 12.0 0.0
28 1 1 2.0 0.0 11.0 0.0
29 1 1 2.0 0.0 10.0 0.0
30 1 1 2.0 0.0 9.0 0.0
31 1 1 0.0 0.0 8.0 0.0
32 1 1 0.0 0.0 7.0 0.0
33 1 1 0.0 0.0 6.0 0.0
34 1 1 0.0 0.0 5.0 0.0
35 1 1 0.0 0.0 4.0 0.0
36 1 1 0.0 0.0 3.0 0.0
37 1 1 0.0 0.0 2.0 0.0
38 1 1 0.0 0.0 1.0 0.0
39 1 1 2.0 0.0 0.0 19.0
40 1 1 2.0 0.0 0.0 18.0
41 1 1 2.0 0.0 0.0 17.0
42 1 1 2.0 0.0 0.0 16.0
43 1 1 2.0 0.0 0.0 15.0
44 1 1 2.0 0.0 0.0 14.0
45 1 1 2.0 0.0 0.0 13.0
46 1 1 2.0 0.0 0.0 12.0
47 1 1 2.0 0.0 0.0 11.0
48 1 1 2.0 0.0 0.0 10.0
49 1 1 2.0 0.0 0.0 9.0
50 1 1 0.0 0.0 0.0 8.0
51 1 1 0.0 0.0 0.0 7.0
52 1 1 0.0 0.0 0.0 6.0
53 1 1 0.0 0.0 0.0 5.0
54 1 1 0.0 0.0 0.0 4.0
55 1 1 0.0 0.0 0.0 3.0
56 1 1 0.0 0.0 0.0 2.0
57 1 1 0.0 0.0 0.0 1.0
58 1 1 2.0 -19.0 0.0 0.0
59 1 1 2.0 -18.0 0.0 0.0
60 1 1 2.0 -17.0 0.0 0.0
61 1 1 2.0 -16.0 0.0 0.0
62 1 1 2.0 -15.0 0.0 0.0
63 1 1 2.0 -14.0 0.0 0.0
64 1 1 2.0 -13.0 0.0 0.0
65 1 1 2.0 -12.0 0.0 0.0
66 1 1 2.0 -11.0 0.0 0.0
67 1 1 2.0 -10.0 0.0 0.0
68 1 1 2.0 -9.0 0.0 0.0
69 1 1 0.0 -8.0 0.0 0.0
70 1 1 0.0 -7.0 0.0 0.0
71 1 1 0.0 -6.0 0.0 0.0
72 1 1 0.0 -5.0 0.0 0.0
73 1 1 0.0 -4.0 0.0 0.0
74 1 1 0.0 -3.0 0.0 0.0
75 1 1 0.0 -2.0 0.0 0.0
76 1 1 0.0 -1.0 0.0 0.0
77 1 1 2.0 0.0 -19.0 0.0
78 1 1 2.0 0.0 -18.0 0.0
79 1 1 2.0 0.0 -17.0 0.0
80 1 1 2.0 0.0 -16.0 0.0
81 1 1 2.0 0.0 -15.0 0.0
82 1 1 2.0 0.0 -14.0 0.0
83 1 1 2.0 0.0 -13.0 0.0
84 1 1 2.0 0.0 -12.0 0.0
85 1 1 2.0 0.0 -11.0 0.0
86 1 1 2.0 0.0 -10.0 0.0
87 1 1 2.0 0.0 -9.0 0.0
88 1 1 0.0 0.0 -8.0 0.0
89 1 1 0.0 0.0 -7.0 0.0
90 1 1 0.0 0.0 -6.0 0.0
91 1 1 0.0 0.0 -5.0 0.0
92 1 1 0.0 0.0 -4.0 0.0
93 1 1 0.0 0.0 -3.0 0.0
94 1 1 0.0 0.0 -2.0 0.0
95 1 1 0.0 0.0 -1.0 0.0
96 1 1 2.0 0.0 0.0 0.0
97 2 1 -3.0 25.0 0.0 0.0
98 2 1 -3.0 26.0 0.0 0.0
99 2 1 -3.0 27.0 0.0 0.0
100 2 1 -3.0 28.0 0.0 0.0
101 2 1 -3.0 29.0 0.0 0.0
102 2 1 -3.0 30.0 0.0 0.0
103 2 1 -3.0 31.0 0.0 0.0
104 2 1 -3.0 32.0 0.0 0.0
105 2 1 -3.0 33.0 0.0 0.0
106 2 1 -3.0 34.0 0.0 0.0
107 2 1 -3.0 35.0 0.0 0.0
108 2 1 -3.0 36.0 0.0 0.0
109 2 1 -3.0 37.0 0.0 0.0
110 2 1 -3.0 38.0 0.0 0.0
111 2 1 -3.0 39.0 0.0 0.0
112 2 1 -3.0 40.0 0.0 0.0
113 2 1 -3.0 41.0 0.0 0.0
114 2 1 -3.0 42.0 0.0 0.0
115 2 1 -3.0 43.0 0.0 0.0
116 2 1 -3.0 44.0 0.0 0.0
117 2 1 -3.0 45.0 0.0 0.0
118 3 1 -1.0 89.47717096802079 34.518153873273604 55.15780625313346
119 3 1 -1.0 37.584176925630395 84.38483984534352 42.38442636900231
120 3 1 -1.0 66.37429393255 111.63780232822499 77.22035627269351
121 3 1 -1.0 18.345583533431686 124.2575507577869 53.378498525410755
122 3 1 -1.0 45.2102258447168 43.888077570404036 51.72210320583051
123 3 1 -1.0 47.034374869922324 83.44476800773435 16.354752231548918
124 3 1 -1.0 40.451157499792615 48.64321701273414 52.968513196155754
125 3 1 -1.0 8.359681101441662 122.55999130039953 79.14381030600215
126 3 1 -1.0 20.155071979806216 119.7615310552821 83.01641541803826
127 3 1 -1.0 74.85803597461089 61.92442983035068 62.34592457311051
128 3 1 -1.0 76.24597941851346 60.26946771500232 59.48979180548479
129 3 1 -1.0 14.019878498946925 44.47513479916818 35.58655992140377
130 3 1 -1.0 59.77983299515607 66.60613976487483 20.271641608593416
131 3 1 -1.0 79.8523254328375 65.13766688162558 59.13926890206563
132 3 1 -1.0 85.23937420847483 118.22917041886588 97.74456984521122
133 3 1 -1.0 98.50775514478916 89.75275477670233 72.34910954613419
134 3 1 -1.0 56.55427296284358 119.57423994204423 52.10974775922206
135 3 1 -1.0 26.104388672010494 90.74426245800024 77.73329103096334
136 3 1 -1.0 24.900959300950266 65.06251445714294 42.84337095555374
137 3 1 -1.0 4.839799120315902 109.27136327233498 58.59951087548474
138 3 1 -1.0 4.899942835108273 105.34107678985427 41.67357954243185
139 3 1 -1.0 89.65621073195553 95.233278640452 28.032104013213775
140 3 1 -1.0 87.50786909002733 37.68878948736519 15.029988584361597
141 3 1 -1.0 26.504956697422866 55.73613257302246 16.674952239439012
142 3 1 -1.0 87.60804531276844 65.01308525168474 72.07677109249828
143 3 1 -1.0 91.77087100076977 51.92199307314401 58.433284078458136
144 3 1 -1.0 0.6262716345035946 91.5450871976631 93.6257915055597
145 3 1 -1.0 92.28719582727341 76.30350246116633 39.36586157988133
146 3 1 -1.0 91.22197237695498 76.3696183562571 59.23215419726071
147 3 1 -1.0 27.334134441898406 59.30017758611075 5.300666323130942
148 3 1 -1.0 83.30838729136215 37.66868788485771 90.83586993427149
149 3 1 -1.0 62.258127722879166 93.15372556411053 83.14209129662994
150 3 1 -1.0 31.291878608755464 58.23617471830226 7.580244646275769
151 3 1 -1.0 50.86248194616435 122.30593860492175 65.18624661266146
152 3 1 -1.0 48.98979067150739 91.5721476627531 9.98358375741477
153 3 1 -1.0 3.406162816865932 108.40600494074123 81.93277261150052
154 3 1 -1.0 12.633031154701635 108.01846761675222 71.71838682951127
155 3 1 -1.0 23.29397805995933 45.919489860159715 70.82331833200993
156 3 1 -1.0 19.74117989450831 52.66591336599926 60.73748843027449
157 3 1 -1.0 26.6026375873064 57.80578145473139 88.9624225707502
158 3 1 -1.0 2.3525580504003996 45.9471667902763 97.20606324459025
159 3 1 -1.0 48.80243520732493 123.88098498815152 2.162178134910231
160 3 1 -1.0 43.866307057708454 113.27501029312967 1.0810509916693412
161 3 1 -1.0 31.858378829429977 79.92904688467218 60.9018436808597
162 3 1 -1.0 36.129111962858154 60.81919836434435 62.19331393954112
163 3 1 -1.0 37.989375911128455 81.95537800999277 7.420641221087521
164 3 1 -1.0 37.19963883652184 81.3072378851873 77.05774210408745
165 3 1 -1.0 92.66233402925796 119.39187364627143 28.514419123018985
166 3 1 -1.0 22.422843626293552 35.32442977105429 1.4905721246106451
167 3 1 -1.0 16.118044187425095 68.27907433785325 33.385789763717675
168 3 1 -1.0 0.7404665270219102 122.80504473728068 62.37598402846608
169 3 1 -1.0 50.772284841511095 35.795971857280705 43.423856845077914
170 3 1 -1.0 83.653493812791 39.65048529056118 58.782044213110396
171 3 1 -1.0 87.12540094025832 83.20017529478031 26.98601331327498
172 3 1 -1.0 79.67124483247447 66.69178167107474 19.253321349789275
173 3 1 -1.0 15.448501333249009 102.95308199716493 51.66493377736785
174 3 1 -1.0 44.384674849201964 75.19631422380783 91.74890274222717
175 3 1 -1.0 35.36766468345044 121.2757001697234 62.70983152182406
176 3 1 -1.0 91.84740893952454 27.22735887288572 1.906451707079737
177 3 1 -1.0 74.32175146654258 89.93670060362248 28.54528697922738
178 3 1 -1.0 15.192276910873325 28.382889135844437 62.61302316957785
179 3 1 -1.0 64.59353117439787 38.62709222240519 78.13114042974513
180 3 1 -1.0 20.685711978047237 33.31799340421458 68.83358636671402
181 3 1 -1.0 15.298179486716235 100.8376379411666 22.076776138201115
182 3 1 -1.0 87.04847426639112 102.61098599022674 52.51876662976389
183 3 1 -1.0 75.55275063795659 61.3947826926344 40.9398831046486
184 3 1 -1.0 37.560147465127066 51.45453448533903 46.355243365321556
185 3 1 -1.0 46.691775507904055 31.877508498078754 62.98222917345061
186 3 1 -1.0 21.048773243676656 45.71273631319186 74.01277340633825
187 3 1 -1.0 7.746174686112228 59.453139581748815 96.0248829308217
188 3 1 -1.0 55.50951525478926 25.345301380431085 74.59940334153097
189 3 1 -1.0 91.07938951984514 97.06542964153383 11.184053783131898
190 3 1 -1.0 60.329211537642834 120.401030887877 27.560913837069855
191 3 1 -1.0 46.277754903163896 38.707103889662996 83.05089894259878
192 3 1 -1.0 96.78370714317445 69.6692222206948 56.742692382313784
193 3 1 -1.0 2.166200276808705 25.147501766545055 57.71573794809469
194 3 1 -1.0 41.02935472692533 121.66841156058332 98.12855758864568
195 3 1 -1.0 2.6116348968446945 58.45195103069606 50.39775390637769
196 3 1 -1.0 37.08940442804028 39.817930026054405 28.82772108587589
197 3 1 -1.0 17.121715951616146 107.373456474667 89.62607012563663
198 3 1 -1.0 22.209364327585213 69.76546456362081 80.04170359741894
199 3 1 -1.0 19.622253307939985 85.44501426936355 2.7618225580023137
200 3 1 -1.0 57.76499391999387 84.23415254044585 34.75630128406135
201 3 1 -1.0 78.77561371146696 84.05588793451477 88.95932867219632
202 3 1 -1.0 24.055750942526178 76.24266615400131 5.77318556578178
203 3 1 -1.0 4.555919268180542 117.78313024699094 35.545222650731546
204 3 1 -1.0 69.635646744712 55.77887924886083 36.42018166017896
205 3 1 -1.0 53.70774200433017 57.3577806772644 53.98328079387012
206 3 1 -1.0 1.4242584185375606 112.94594850574978 12.852236774340842
207 3 1 -1.0 75.7317953954937 26.698644720542962 46.44682552592451
208 3 1 -1.0 85.76018207685384 77.40799874195133 0.7129706498020139
209 3 1 -1.0 92.28177824660332 91.34617425255563 53.79990554917201
210 3 1 -1.0 71.73804372598157 100.05852231440574 33.41922663116308
211 3 1 -1.0 65.18867754033595 54.09016755706875 65.01569229724046
212 3 1 -1.0 54.75533695998583 72.45356262718165 14.892631202426188
213 3 1 -1.0 34.373555234738106 41.25594852138113 7.666476964677537
214 3 1 -1.0 91.13076569481397 41.06308220600534 34.51754381831207
215 3 1 -1.0 12.23326559028244 106.02217049242711 36.668831790228204
216 3 1 -1.0 89.36970308004983 78.28196528794092 90.30006988455506
217 3 1 -1.0 7.897624391869373 49.96103307005968 59.06990307858957
218 3 1 -1.0 17.594106933618004 76.43120074713421 85.31193878921404
219 3 1 -1.0 24.078712386661095 76.04879492672376 66.2498996772984
220 3 1 -1.0 76.78944816307242 28.805808893348374 42.90695723512119
221 3 1 -1.0 28.073460537254526 52.42180103885987 95.89791103216973
222 3 1 -1.0 5.533458432121696 98.67777065490053 36.60422813401832
223 3 1 -1.0 48.852993787660104 53.75607734697336 83.85944820804362
224 3 1 -1.0 44.211234027286004 79.25475951651069 32.44490995845754
225 3 1 -1.0 42.78118588672083 37.12054383409598 10.782367107814295
226 3 1 -1.0 91.89181188164757 95.73938074187839 43.62643226824283
227 3 1 -1.0 94.38055276801397 37.230886327079816 88.9375410327238
228 3 1 -1.0 78.71006657729318 54.1040015155292 36.55654134638318
229 3 1 -1.0 81.39820351007897 74.84315603964077 22.49150956320012
230 3 1 -1.0 67.79531626428928 25.58863389607361 29.92405501235479
231 3 1 -1.0 74.21464369230269 31.339555126483475 18.00806258460478
232 3 1 -1.0 73.37098526785933 70.99978516117713 40.790824732479926
233 3 1 -1.0 18.523775250879694 109.44942202370687 95.18741830343318
234 3 1 -1.0 43.87140414135078 30.18487017915583 8.715860488701999
235 3 1 -1.0 21.49331837816575 108.11919620383668 34.909479830211644
236 3 1 -1.0 46.422084680035915 70.89360838901328 10.094120168004583
237 3 1 -1.0 82.75617536340897 109.33110594332288 54.70638663094485
238 3 1 -1.0 32.26437853921153 27.384695765280796 26.701509925261313
239 3 1 -1.0 97.46079372987174 117.89529642190092 77.77868682554161
240 3 1 -1.0 48.67586476530757 100.4138144528277 4.000952381611533
241 3 1 -1.0 94.15904274825508 51.21204587061724 62.401951965147205
242 3 1 -1.0 95.58688056972639 58.048147127805414 77.09851142633481
243 3 1 -1.0 8.15155250663645 46.582449853630635 53.47865109770261
244 3 1 -1.0 98.75052450310207 55.03567037162716 20.556071417806564
245 3 1 -1.0 24.487971854075006 84.47139126572424 61.69794334467149
246 3 1 -1.0 89.4963000034717 37.43108534907708 66.22360172575414
247 3 1 -1.0 3.8967446544926343 108.90458932409801 23.684472983766426
248 3 1 -1.0 7.605190501798975 89.88547084260394 22.318913800224706
249 3 1 -1.0 41.66539464478305 31.669086009300038 46.40126944408094
250 3 1 -1.0 92.34618669170787 40.194036589761325 28.359650902935396
251 3 1 -1.0 55.34513487093239 33.20861707834631 42.47708959466861
252 3 1 -1.0 30.631174858217037 106.32193467769896 78.76104825183013
253 3 1 -1.0 6.899474527857774 122.71939500032056 20.72493018589725
254 3 1 -1.0 69.20785486132297 102.31268513024196 94.24402941462507
255 3 1 -1.0 56.438290573326896 78.51595535960308 29.257504591498275
256 3 1 -1.0 12.373035986186565 26.93659729002531 42.69519784399359
257 3 1 -1.0 73.66545620963211 41.86979745235409 30.920794854434817
258 3 1 -1.0 14.546685026145855 34.2235250523035 87.67745382579832
259 3 1 -1.0 93.76709078389814 91.54809130162627 20.67805308385665
260 3 1 -1.0 51.72721741042305 116.46555422038458 48.34187260052285
261 3 1 -1.0 11.571246908151567 63.25962575031808 6.654884961206586
262 3 1 -1.0 35.80574371540509 53.91390469111319 11.335642396596658
263 3 1 -1.0 37.530011504444246 67.46099637562082 71.76648036184355
264 3 1 -1.0 16.0219072058874 116.92079808701683 88.79234976177587
265 3 1 -1.0 82.24951846905033 84.64204809461934 62.59791252514941
266 3 1 -1.0 39.0505046160954 75.9355433046761 64.99750930022262
267 3 1 -1.0 25.662697978523497 121.56526156785465 84.32725291733234
268 3 1 -1.0 91.60032432793021 76.70472610392815 12.376759103868073
269 3 1 -1.0 40.29369219390354 68.16023618032604 59.26405162128104
270 3 1 -1.0 41.88041037524503 57.585118598092656 65.82060083416678
271 3 1 -1.0 34.89974632423953 96.32330617295601 90.26846144934491
272 3 1 -1.0 1.809719062548043 64.0467465483703 98.99529993590934
273 3 1 -1.0 54.585464474827496 97.17777461601025 54.38944734680204
274 3 1 -1.0 82.48747461495606 69.14061359766096 80.84376910408253
275 3 1 -1.0 58.396755151658965 37.27273490687314 45.50004472470738
276 3 1 -1.0 65.93320193915544 61.460651997454974 16.756150728402208
277 3 1 -1.0 59.38490197531902 40.33038357676728 81.2060134801627
278 3 1 -1.0 65.72264508345638 121.98682612998705 22.737656606760815
279 3 1 -1.0 11.102159969784807 105.96100034281561 82.08049884635487
280 3 1 -1.0 92.35495093556713 100.87660912347457 44.810165484776185
281 3 1 -1.0 78.0753626062773 67.19351592676364 89.20585528793545
282 3 1 -1.0 34.14671672892802 121.41456322990184 17.255965521600437
283 3 1 -1.0 55.5822065591819 39.980375066700425 69.04837497910924
284 3 1 -1.0 35.601992569347864 65.22617917640184 71.13924705418711
285 3 1 -1.0 16.874976287399356 109.3674178181712 29.878671473231332
286 3 1 -1.0 71.81820651762077 42.875326989166055 96.66393998156533
287 3 1 -1.0 1.2513462803275255 35.09886110188424 61.72609264213169
288 3 1 -1.0 86.52502044653869 100.01092908996355 22.94532531432688
289 3 1 -1.0 30.126037877471457 49.94657790454272 67.80407479229066
290 3 1 -1.0 34.988783188824065 103.68054734422864 45.521210216360274
291 3 1 -1.0 86.13009571017002 45.13109072515387 20.541681295847848
292 3 1 -1.0 86.93145589752551 61.048023974747245 90.73754770057849
293 3 1 -1.0 66.54462197894368 29.102979231508677 16.777095046282785
294 3 1 -1.0 14.772138340675344 55.952376432831386 82.18918070567311
295 3 1 -1.0 44.645552827140435 42.940841680185656 96.89871820091204
296 3 1 -1.0 40.69577178880689 49.465963344677945 48.00946501165389
297 3 1 -1.0 68.82443772238183 26.183892772903384 47.36165717873835
298 3 1 -1.0 89.57770630307506 25.906092741473696 97.98512356208663
299 3 1 -1.0 47.96780038491095 121.74782205693151 49.774876509823564
300 3 1 -1.0 39.44341622625673 52.42711959510655 40.614624175028894
301 3 1 -1.0 38.98241486694016 93.50467458811245 65.81169736496122
302 3 1 -1.0 78.27471602881056 79.92981504956845 32.57167761746263
303 3 1 -1.0 37.45235738871864 37.574228346587844 74.17960054296935
304 3 1 -1.0 47.8148043362682 72.94686775016592 89.30341813640706
305 3 1 -1.0 98.73464692940023 33.33060091229605 15.936123770216692
306 3 1 -1.0 2.727337979947553 85.81691887945861 34.91101217847215
307 3 1 -1.0 77.17464982671149 33.18473285819532 43.05142742118102
308 3 1 -1.0 65.24467301041675 103.6186493304096 69.1886602651689
309 3 1 -1.0 28.90202525310781 63.46527853838674 85.70933986529116
310 3 1 -1.0 19.15965176170963 103.87024719326098 79.78084058277265
311 3 1 -1.0 24.33824067016851 118.78937654760652 89.68169026638724
312 3 1 -1.0 41.12553547272698 111.48853202316474 99.89793149088743
313 3 1 -1.0 85.43919618257976 106.71896368846707 37.46085829357413
314 3 1 -1.0 76.57472242658434 122.82659771281729 14.695904582294716
315 3 1 -1.0 57.497584245804326 34.67137206334057 4.733425392567181
316 3 1 -1.0 4.4122906388926015 111.2250404394097 93.48795661890792
317 3 1 -1.0 54.02390974545914 39.79055805779166 70.87189034679807
318 3 1 -1.0 15.422472624407268 81.29852653480083 51.05263330342328
319 3 1 -1.0 11.878112737851765 25.33906811259341 59.640626819846275
320 3 1 -1.0 98.37428198400639 62.93144276714388 53.96583823919011
321 3 1 -1.0 24.790961502286855 76.8243355041321 99.29062153237427
322 3 1 -1.0 37.28106978835738 103.1757500655862 52.31154364385876
323 3 1 -1.0 96.66313439140269 69.33395845690826 71.59879880068193
324 3 1 -1.0 5.518913863263464 98.04801616725415 46.160205733679106
325 3 1 -1.0 8.532322851549468 77.7323049877404 5.550283390603228
326 3 1 -1.0 55.946807732503345 38.34617690393222 60.38164810758968
327 3 1 -1.0 48.175191549543264 87.03529121793788 33.514257501645105
328 3 1 -1.0 80.99566874224364 89.43143146778453 15.982173381855546
329 3 1 -1.0 36.3533613616092 110.19508405335853 9.03095803816919
330 3 1 -1.0 27.081377342368917 55.7911474273147 43.696760025597115
331 3 1 -1.0 40.56902947772202 48.22029219730606 18.77221125706572
332 3 1 -1.0 86.11548013255462 114.0947016716782 55.10682350624917
333 3 1 -1.0 27.58890697284685 107.54642389081516 64.08277685552322
334 3 1 -1.0 42.79905215480473 58.52067439813964 40.025678223290974
335 3 1 -1.0 54.53305105429903 115.58056902671248 15.54475896842189
336 3 1 -1.0 68.87985994024129 36.53079981655718 80.49231733611032
337 3 1 -1.0 59.95891001487619 92.76186614492445 87.69503462599967
338 3 1 -1.0 12.059760668068108 106.13327407204743 99.87121550906095
339 3 1 -1.0 69.04021130176828 122.96525842449995 3.86165488658452
340 3 1 -1.0 99.08078565276345 49.27433850771543 81.86358848532474
341 3 1 -1.0 37.599391779858806 48.898603127235305 7.743008887070535
342 3 1 -1.0 36.53367856896801 38.78062159802464 58.280584239876355
343 3 1 -1.0 11.119049545821492 99.79933589195419 17.68843647594329
344 3 1 -1.0 97.63257046961994 102.55610011266397 68.5357171945674
345 3 1 -1.0 65.20739939334483 121.8580854581921 81.80101387825147
346 3 1 -1.0 63.72270731314541 106.00110047341875 51.933836350927876
347 3 1 -1.0 74.01835675232341 38.26896533971309 76.00349028520445
348 3 1 -1.0 17.811651154901288 48.38202004656685 93.35284844573181
349 3 1 -1.0 33.83426384666559 103.8313594900496 75.72102758853167
350 3 1 -1.0 93.9594087511986 45.154859549925504 1.9197724735582455
351 3 1 -1.0 36.72636273918338 86.67752234984357 92.68150322837285
352 3 1 -1.0 43.332225490028506 101.0464879734566 14.325759715948916
353 3 1 -1.0 79.3495469253958 46.732688852841754 92.69443397082048
354 3 1 -1.0 71.4160601551863 117.40905149573409 10.74639136750022
355 3 1 -1.0 77.42459526239013 101.32321051575373 68.43120173632549
356 3 1 -1.0 52.609765966596356 27.98935590272994 23.69542688091012
357 3 1 -1.0 67.33150017618996 124.52847830271267 72.84017340067278
358 3 1 -1.0 20.20099292956612 86.53909807324263 48.39319477886123
359 3 1 -1.0 74.1587924833755 116.03405270872146 87.66676604294933
360 3 1 -1.0 94.98242685823442 47.763551187673244 43.901443147728834
361 3 1 -1.0 70.74275046030974 32.86874028711635 72.25885299944729
362 3 1 -1.0 81.7215540751392 74.05978984606061 31.194958295240703
363 3 1 -1.0 47.26911234468514 58.22231458602774 77.8358298835076
364 3 1 -1.0 9.337714622377646 32.6825207412522 95.22684807097369
365 3 1 -1.0 74.54362727308505 116.177159331115 54.78131689852175
366 3 1 -1.0 47.2958472145737 68.52225012713345 3.4283531720559424
367 3 1 -1.0 66.27635310950656 47.66754399113198 60.43166118609463
368 3 1 -1.0 39.08515708738034 111.44835543432525 81.55029619268271
369 3 1 -1.0 88.32368543423516 66.45196223429957 44.80353101758091
370 3 1 -1.0 36.511806891230336 103.07967863649272 83.22928711708857
371 3 1 -1.0 88.9073058594878 62.98441398002854 13.76526231767141
372 3 1 -1.0 59.53721521885339 75.67137883510915 24.85196138719311
373 3 1 -1.0 20.20115914404862 57.137649529898006 80.59152323890547
374 3 1 -1.0 15.518965883576108 81.35711991889981 9.051119764228932
375 3 1 -1.0 19.175507290734416 60.25902474488593 62.415854776260716
376 3 1 -1.0 18.14386314326687 36.92149825333616 35.9143234906791
377 3 1 -1.0 67.85616873142092 69.13369481167035 45.65348391511665
378 3 1 -1.0 59.43034883377384 28.891616459507986 71.42603532398229
379 3 1 -1.0 74.37336480490715 121.8030956410342 44.8507810023419
380 3 1 -1.0 50.46665401408125 110.48439394948892 98.86271911308002
381 3 1 -1.0 62.06458250473905 32.21166232211088 56.99119342129523
382 3 1 -1.0 14.755059127960223 97.82109581633837 58.28639860094032
383 3 1 -1.0 63.04671500825406 74.53118087617872 93.480540489085
384 3 1 -1.0 40.73609784612865 110.16072311455368 5.763398930531904
385 3 1 -1.0 8.700754486414475 54.0142527259343 71.38303296599868
386 3 1 -1.0 59.320699864152346 69.60581940286065 3.217005142311491
387 3 1 -1.0 43.05891412760582 103.19405858335531 17.227769943945027
388 3 1 -1.0 72.18107596281402 118.18229747854983 79.89093699943557
389 3 1 -1.0 61.33907952040949 52.29689402588011 52.44301076230151
390 3 1 -1.0 68.13302395012292 31.10384237817103 20.87590765969273
391 3 1 -1.0 38.01311345124579 77.7793030725243 21.90688757728495
392 3 1 -1.0 33.660270462564824 43.31739743458477 18.801650854346907
393 3 1 -1.0 83.73347835235693 67.19233981699048 28.511678902836945
394 3 1 -1.0 85.29968402449023 52.06478054945431 39.891963614743595
395 3 1 -1.0 84.35786210483724 49.24869094648844 34.909118533742046
396 3 1 -1.0 39.64735270957416 121.7969749404931 66.0358528105806
397 3 1 -1.0 74.02757139318304 98.40146983955826 35.76829216657372
398 3 1 -1.0 8.645974360265251 74.11504637204686 25.747981638725626
399 3 1 -1.0 42.33381939079869 78.46365972751755 56.76016345247879
400 3 1 -1.0 59.85056803276838 55.934435778637024 50.619373722358574
401 3 1 -1.0 53.63199276504908 31.18745005575281 43.71758230674283
402 3 1 -1.0 40.36464998291237 64.83985520698619 63.08949413591476
403 3 1 -1.0 4.297343787532315 25.04966153014849 89.76274089527469
404 3 1 -1.0 73.03699955881562 77.52323021872668 25.318472404301097
405 3 1 -1.0 21.748865131916773 62.55684557582361 10.28727731966308
406 3 1 -1.0 10.88987638951765 121.65325904629866 30.00976811029853
407 3 1 -1.0 91.92893777127566 46.21116875261584 88.18826012578617
408 3 1 -1.0 63.12856040304713 67.91851128930298 5.165807189561145
409 3 1 -1.0 98.5971846038284 31.16368336713613 44.22662261848603
410 3 1 -1.0 8.34900607226514 67.73239120984613 10.346017068522272
411 3 1 -1.0 60.06659118462577 62.191444371374715 31.146592854545784
412 3 1 -1.0 35.49853076182078 77.73313593888636 63.492362686193204
413 3 1 -1.0 70.12757263813779 70.59361862720303 70.8526666055042
414 3 1 -1.0 44.12726499089583 122.43763645269253 98.63742767042864
415 3 1 -1.0 19.119248445380176 107.91158085497885 6.0562973583952795
416 3 1 -1.0 17.503617205171686 48.589675172188564 34.15950675651893
417 3 1 -1.0 6.89202076050689 47.62754867577502 43.45084309345877
418 3 1 -1.0 79.90791009361114 57.31471482426965 25.087344818168944
419 3 1 -1.0 49.4471731594916 84.08359947854376 64.17344386809827
420 3 1 -1.0 37.01987622811407 67.24689817165255 21.197888318795698
421 3 1 -1.0 82.622900325912 49.002007571920544 26.9033480149401
422 3 1 -1.0 24.572777298854888 31.736345712035984 2.54266582188144
423 3 1 -1.0 25.56994972315817 54.509070013640994 61.280418815572254
424 3 1 -1.0 62.44682269408782 28.295529778742424 15.922790037955147
425 3 1 -1.0 59.71024133437106 41.50615098018865 99.33796397318497
426 3 1 -1.0 48.58437282821902 66.3938986434867 67.81628434827967
427 3 1 -1.0 46.47566819934967 82.53419828293204 44.167431075431715
428 3 1 -1.0 76.72475028994211 120.25147074140457 32.064807316395175
429 3 1 -1.0 70.61353870477168 90.49271510198695 42.4854995005413
430 3 1 -1.0 66.36002719633231 110.56525231253376 21.046633375830115
431 3 1 -1.0 61.01162696919291 87.27965834247817 98.30111264115172
432 3 1 -1.0 31.17836020629241 44.70447295536847 81.6846258280711
433 3 1 -1.0 9.93246828708737 82.13967809823005 22.84998271299621
434 3 1 -1.0 99.26434404076501 49.510460943553866 9.766109081828489
435 3 1 -1.0 6.665155437650839 105.49281522456099 3.4009009924385603
436 3 1 -1.0 16.72054226969516 29.724613713656787 55.19587369334562
437 3 1 -1.0 59.4363286176822 107.95792339474777 54.734874326957325
438 3 1 -1.0 75.79133109013522 55.8073570357123 95.22536289289901
439 3 1 -1.0 94.49403141368923 35.27279424681302 97.04392758868748
440 3 1 -1.0 95.20940411240305 85.95796030741488 32.16085591979806
441 3 1 -1.0 68.1171327188386 25.089732884400505 34.735334268585675
442 3 1 -1.0 28.733559884143865 104.95248175762356 29.928655540957205
443 3 1 -1.0 90.41578207915498 105.93717122406609 3.9166308270183747
444 3 1 -1.0 84.30057149682703 67.26670971056194 74.57445532121135
445 3 1 -1.0 1.1367283573497922 90.77232846180617 22.490471108109645
446 3 1 -1.0 45.41976746384696 63.41640574901095 87.7505521997401
447 3 1 -1.0 33.35654952412612 67.84656377513193 41.10828080051662
448 3 1 -1.0 72.22735680511614 82.78243838445049 30.249883936043798
449 3 1 -1.0 5.887150466184066 107.44483482970635 2.805174846026204
450 3 1 -1.0 7.769852745679328 87.40165788055697 15.573588291982388
451 3 1 -1.0 22.101779839726476 27.372087566042335 81.72056574970381
452 3 1 -1.0 45.972507170783736 96.66338838187623 66.71940955934308
453 3 1 -1.0 7.742127465790205 121.57533611755727 18.99435522691093
454 3 1 -1.0 22.259245989628006 100.11306265914406 13.59941814279656
455 3 1 -1.0 3.341602163522628 122.34291632123409 80.3884327863634
456 3 1 -1.0 18.88458558639409 123.73850531578955 63.738763842845216
457 3 1 -1.0 96.17763719899365 69.70704849577959 72.08363875822286
458 3 1 -1.0 64.01396675137019 36.52918666733693 37.13698490682673
459 3 1 -1.0 20.398163726372655 96.69118842971876 18.60698903480743
460 3 1 -1.0 36.142392842845894 33.934324723653084 68.00612426046986
461 3 1 -1.0 61.95059622989961 120.48202969759362 58.074901462162465
462 3 1 -1.0 75.51576655528218 92.4389126718631 22.439293083089694
463 3 1 -1.0 25.709071515850468 76.42368046827721 6.4251052058966085
464 3 1 -1.0 54.41125619886535 102.3650766883958 40.08915728272662
465 3 1 -1.0 82.35108862448963 49.489793405487234 48.75536311316603
466 3 1 -1.0 59.98519887237207 35.33964749747401 9.198076487836849
467 3 1 -1.0 8.45941626179446 30.475003196928796 40.798887514064376
468 3 1 -1.0 6.955386715026091 111.72089751681135 90.17186881131705
469 3 1 -1.0 74.26250264498607 91.2847357106541 34.093237748073015
470 3 1 -1.0 23.2196315059895 29.26707223830858 69.55566182641495
471 3 1 -1.0 29.756580943815102 100.56157334191566 29.91306174348557
472 3 1 -1.0 24.12548411636527 72.68381802662739 89.2367245652239
473 3 1 -1.0 78.10359535947772 54.78864730484516 89.78128540726017
474 3 1 -1.0 46.90555105573735 124.53300739808296 31.397871128125065
475 3 1 -1.0 60.02878299710134 89.26412838146832 88.22817586882512
476 3 1 -1.0 84.19421484509496 78.42436762459397 10.59036921602685
477 3 1 -1.0 72.41360272899227 111.13842731287568 69.28930587303567
478 3 1 -1.0 13.361878098239078 35.556628605889564 35.55282566405512
479 3 1 -1.0 92.49716711865882 33.488609463503984 25.65296252118173
480 3 1 -1.0 46.74111226415868 102.88730881390183 62.23219025943322
481 3 1 -1.0 9.57605397221818 66.3939860222132 30.829191198851703
482 3 1 -1.0 85.74305217753223 79.13079794477082 23.81945542192847
483 3 1 -1.0 8.368255866874852 87.25652217066201 73.29066875186156
484 3 1 -1.0 43.74307884521127 94.31345616074273 44.06932675562947
485 3 1 -1.0 55.66136253540805 27.92718779323873 29.770634170544387
486 3 1 -1.0 93.29604090387083 111.3928733259257 76.07203093884469
487 3 1 -1.0 31.54711892053339 27.26627418199333 32.81965403346876
488 3 1 -1.0 43.185932383484214 45.78442982439984 72.99701427121985
489 3 1 -1.0 73.04063461661605 65.77535102728069 30.62917477810363
490 3 1 -1.0 50.32415530534813 25.073024463853066 80.47236443229957
491 3 1 -1.0 90.36538139768213 97.99471788543028 59.63564858162641
492 3 1 -1.0 48.14303143004742 39.46441775485701 37.30711613455399
493 3 1 -1.0 71.67299793142533 82.67900179861465 17.105347909427405
494 3 1 -1.0 72.88324416689163 25.109127002532716 60.53673099385429
495 3 1 -1.0 42.381567756484394 46.79972829118884 79.59960795962255
496 3 1 -1.0 88.23138836547686 105.92920918302758 71.09601117533252
497 3 1 -1.0 29.356545517439425 82.56887420629505 23.63856153706847
498 3 1 -1.0 38.257420373271366 83.78723303682274 79.9997574963309
499 3 1 -1.0 55.107793731836416 57.78579760379814 77.25600199010823
500 3 1 -1.0 8.050227479183182 91.88492964698132 41.27876516658818
501 3 1 -1.0 51.24726081974549 117.91827281467619 11.267575815894737
502 3 1 -1.0 85.73744968267877 30.152997455309084 96.7915331931506
503 3 1 -1.0 2.7820611804509565 67.02534978819392 26.294566147926
504 3 1 -1.0 71.501335179464 101.91040783835926 22.326833588276564
505 3 1 -1.0 12.389758520263916 88.48961741990243 56.851257588138026
506 3 1 -1.0 1.3534893239189771 116.90646760612341 1.1676740943891484
507 3 1 -1.0 54.37413291349983 61.356234804126586 73.78582567693688
508 3 1 -1.0 39.880292971000465 122.94816752100513 1.3776995084950006
509 3 1 -1.0 12.787922865855217 53.272069075445415 2.01539652881072
510 3 1 -1.0 95.28463961088572 35.8941199510325 49.43082389960971
511 3 1 -1.0 85.7809421375694 42.84483408637662 16.54711360825739
512 3 1 -1.0 41.854661972687836 66.16203241137796 65.96271675842192
513 3 1 -1.0 57.5637810648231 71.56111617028007 67.03804620018373
514 3 1 -1.0 77.30400223522028 46.24993244936138 87.49707574434018
515 3 1 -1.0 27.339243699518157 94.50638071513693 29.629887262541533